ITEM: TIMESTEP
100000000
ITEM: NUMBER OF ATOMS
61833
ITEM: BOX BOUNDS pp pp pp
0 62
0 62
0 62
ITEM: ATOMS id mol type x y z vx vy vz 
1 1 1 7.94891 58.8501 34.2983 -0.000472609 -0.208777 0.11369 
2 1 1 7.39146 58.8516 33.6202 -0.0530088 -0.224125 -0.0175799 
3 1 1 8.18382 58.1747 33.8026 0.11142 0.171236 0.055977 
4 1 1 7.68595 58.1552 33.0653 -0.0140583 0.0730099 -0.0623923 
5 1 1 8.77749 58.4456 34.5977 0.0350552 -0.0925861 -0.107778 
6 1 1 8.62579 57.6451 33.2854 0.0216283 0.115548 -0.070788 
7 1 1 8.33382 57.557 32.4627 -0.0620008 0.0409914 0.068428 
8 1 1 7.36381 59.5404 34.2272 0.15349 -0.0449808 0.11263 
9 1 1 6.74186 59.5229 33.4142 0.156224 0.0124824 -0.114718 
10 1 1 6.93556 58.8378 32.8636 -0.00384071 -0.0396117 -0.0429466 
11 1 1 7.39886 58.1929 32.2997 0.037075 -0.192612 -0.00432667 
12 1 1 7.69995 57.8367 31.6311 -0.204592 0.0757085 -0.0289155 
13 1 1 8.02061 59.5966 34.9295 -0.150272 -0.0888497 0.0733907 
14 1 1 8.44714 59.0351 34.9111 0.132055 0.148437 0.0194023 
15 1 1 9.19784 58.8788 35.2175 -0.0484682 0.0254752 0.0877146 
16 1 1 9.09428 57.7557 34.0534 -0.0491073 0.147375 -0.111578 
17 1 1 9.60677 58.0962 34.7632 0.115691 0.0397721 -0.155565 
18 1 1 8.29548 57.4186 31.5167 -0.0657442 -0.0630501 0.0759553 
19 1 1 8.95713 57.1115 31.9074 -0.0307296 -0.0879991 0.196515 
20 1 1 9.26024 57.1449 32.6787 0.0594128 0.22964 -0.0596124 
21 1 1 9.6075 57.2842 33.3648 -0.0233117 0.125114 0.0244763 
22 1 1 8.04848 60.2541 35.2731 -0.147662 0.0862893 0.154511 
23 1 1 7.27181 60.2412 34.6073 0.0748193 -0.0569145 0.101805 
24 1 1 6.69288 60.2094 33.862 -0.054696 0.0147858 0.0781284 
25 1 1 6.31011 60.4225 33.1874 -0.00527463 -0.114227 -0.0902291 
26 1 1 6.42442 59.6464 32.5723 0.114542 0.000680848 -0.0521864 
27 1 1 6.6562 59.0375 31.9165 -0.00575138 -0.0200485 -0.105438 
28 1 1 7.95582 57.6191 30.7809 -0.159592 -0.0481668 -0.0922626 
29 1 1 7.00681 58.533 31.3797 0.0322234 0.0510548 -0.00527589 
30 1 1 7.38229 58.0964 30.6862 -0.00381842 -0.0889039 0.11555 
31 1 1 8.87973 59.7208 35.5624 -0.0312906 -0.102817 0.141507 
32 1 1 9.65932 59.2025 35.6751 0.0122186 0.0872354 0.0887832 
33 1 1 10.068 58.5017 35.3135 -0.100411 0.0698354 -0.0546271 
34 1 1 10.1201 57.5033 34.1394 0.259532 0.173824 0.15469 
35 1 1 10.5598 58.0016 34.942 -0.00163208 -0.121254 -0.0235628 
36 1 1 8.70788 57.2198 30.9877 0.0195702 -0.0534853 -0.0280569 
37 1 1 9.5285 56.8738 31.2087 -0.0500686 0.0553109 0.159109 
38 1 1 8.52072 57.379 30.1507 0.0272282 0.0969221 0.0208352 
39 1 1 9.85114 56.9004 31.9341 -0.161223 -0.157669 -0.0463055 
40 1 1 10.2163 56.8932 32.6557 0.155062 0.0461903 -0.0771213 
41 1 1 10.6375 57.0218 33.4652 -0.01764 -0.0422675 0.0290084 
42 1 1 8.46732 60.6637 35.7606 0.092697 0.0214965 -0.363968 
43 1 1 7.84557 61.2559 35.5119 0.12027 -0.00765356 0.0353493 
44 1 1 7.30579 61.1244 34.9879 0.192878 0.0739017 0.204802 
45 1 1 6.82749 60.8243 34.4134 0.0581853 0.10497 -0.000365479 
46 1 1 6.45852 61.1883 33.8716 -0.114597 0.0195364 0.122922 
47 1 1 6.16421 61.3544 33.0743 0.163035 -0.0736292 0.0278351 
48 1 1 6.07442 60.6532 32.4315 0.0473487 0.0501734 -0.0113295 
49 1 1 6.19065 59.9419 31.6867 -0.0310669 0.0603823 0.00577652 
50 1 1 6.40665 59.312 30.9746 -0.263604 -0.0947456 0.0117513 
51 1 1 7.8479 57.9319 29.928 0.0795716 -0.149796 0.0861941 
52 1 1 6.86536 58.7846 30.379 -0.0072219 0.0729333 -0.0011077 
53 1 1 7.33288 58.4354 29.8843 -0.0549646 -0.0395102 0.0403664 
54 1 1 9.1757 60.5654 36.0401 0.131409 0.215908 -0.112298 
55 1 1 9.00064 61.5653 36.1773 0.0472403 -0.105724 0.0844057 
56 1 1 9.60649 59.9979 36.0189 -0.0704978 -0.0332981 -0.0911524 
57 1 1 10.3013 59.3295 35.8683 0.120626 -0.0867299 0.0180796 
58 1 1 10.0892 60.6641 36.3181 0.0930065 0.153345 -0.0202105 
59 1 1 10.9502 58.726 35.5571 0.0865743 -0.128174 0.0998774 
60 1 1 11.0651 57.4927 34.2783 -0.0281459 -0.0496504 -0.0118226 
61 1 1 11.4459 58.1858 35.0443 0.0347526 -0.00176557 0.00064964 
62 1 1 10.2901 56.8071 31.3531 0.223144 0.0400156 0.0455565 
63 1 1 9.2507 57.0672 30.3175 -0.0295975 0.0317584 0.0950894 
64 1 1 10.0532 56.8089 30.5613 -0.0253494 0.0518262 0.0721294 
65 1 1 8.34943 57.8392 29.3306 -0.0272188 -0.00711084 -0.0110929 
66 1 1 9.09988 57.338 29.4261 0.141064 0.0897178 0.254796 
67 1 1 10.8041 56.7634 31.8739 -0.0285015 -0.145917 0.0917149 
68 1 1 11.2332 56.8157 32.7181 0.127788 -0.0536977 0.0396356 
69 1 1 11.5951 57.1878 33.5796 0.106177 -0.0189443 0.0958827 
70 1 1 8.31779 61.6786 35.8216 0.0323027 0.103089 -0.121199 
71 1 1 7.63248 61.9953 35.4199 -0.0707431 -0.0866473 0.0205188 
72 1 1 6.87704 61.904 34.5327 -0.0564236 -0.147899 0.0880615 
73 1 1 6.39546 0.108982 33.6421 0.00756528 0.0125551 -0.0800451 
74 1 1 6.05603 0.124016 32.8663 0.13468 -0.159381 -0.249063 
75 1 1 5.90574 61.4706 32.1599 -0.00297104 0.0419057 0.0578088 
76 1 1 5.90312 60.7612 31.4506 -0.041375 0.0860497 -0.0303853 
77 1 1 6.07328 60.1159 30.7065 0.168138 -0.0130041 0.0777443 
78 1 1 6.40992 59.6163 30.0568 0.0499158 0.0769853 -0.2255 
79 1 1 7.71034 58.4542 29.2284 0.00609571 0.00910536 -0.078106 
80 1 1 6.92149 59.1052 29.4677 -0.175659 0.104133 0.146409 
81 1 1 8.16532 58.3987 28.666 -0.00121986 -0.091704 0.0500469 
82 1 1 8.89028 0.555009 36.1438 0.0452872 -0.0107008 -0.0504053 
83 1 1 9.84483 61.4344 36.3932 0.0151942 0.171861 -0.0690845 
84 1 1 9.52993 0.14881 36.3789 -0.0598133 -0.00600531 0.0331523 
85 1 1 10.5083 60.2169 36.2181 0.0455478 -0.00163296 -0.108639 
86 1 1 11.2638 59.5868 35.9454 -0.163844 -0.0018516 0.0450369 
87 1 1 10.6609 61.0823 36.396 -0.115689 0.00972083 0.022713 
88 1 1 11.9464 58.9642 35.5514 -0.0849423 0.0832797 0.111126 
89 1 1 12.0261 57.767 34.3926 0.0671354 0.0982702 0.0873704 
90 1 1 12.3879 58.5196 35.0762 -0.130508 0.0663648 -0.103048 
91 1 1 11.1534 56.7811 30.9906 0.237521 -0.0242761 0.00733639 
92 1 1 9.96511 57.0211 29.7019 -0.116488 -0.0446946 -0.0870951 
93 1 1 10.8378 56.8071 30.1017 -0.174495 -0.0168897 -0.00650056 
94 1 1 8.97325 57.8572 28.6594 0.12192 -0.0881955 0.268503 
95 1 1 9.87817 57.4377 28.8919 -0.0440472 0.0921117 -0.0112264 
96 1 1 11.7746 56.798 31.888 -0.336911 0.161225 0.133693 
97 1 1 12.1478 56.9985 32.822 0.0442679 0.0569749 0.120121 
98 1 1 12.5893 57.5461 33.7283 0.0448947 -0.00962238 0.0888151 
99 1 1 8.11202 0.677386 35.6732 -0.032578 0.0326724 -0.0462737 
100 1 1 7.31459 0.815123 34.9893 0.116825 0.0221588 -0.137876 
101 1 1 6.78988 0.975212 34.2147 -0.246294 0.073411 -0.0376705 
102 1 1 6.39992 1.0746 33.383 -0.0554466 0.0626389 -0.110968 
103 1 1 5.89624 0.262678 32.1554 0.139575 0.025885 -0.0997803 
104 1 1 6.03245 0.886424 32.5481 0.123628 0.134485 -0.0366029 
105 1 1 5.78047 61.8558 31.21 -0.0977049 0.00681293 0.00616853 
106 1 1 5.90786 60.9893 30.5106 -0.0912953 -0.00423259 0.117381 
107 1 1 6.2112 60.402 29.7827 -0.00513842 -0.0709979 0.0206557 
108 1 1 6.57126 59.97 29.3147 -0.091715 -0.11576 -0.0403636 
109 1 1 8.86639 58.5535 28.0155 -0.0768418 0.135771 -0.200984 
110 1 1 7.47229 59.1365 28.6932 -0.0403784 0.164417 0.0464198 
111 1 1 6.95888 59.9908 28.7907 0.0605138 0.0893826 0.00254793 
112 1 1 8.12202 59.1197 27.9612 -0.0365067 0.115329 -0.146602 
113 1 1 9.70452 0.918044 36.3819 0.0620168 -0.0308934 -0.0252195 
114 1 1 8.88862 1.27529 36.0187 -0.259279 0.131535 0.0276549 
115 1 1 10.469 0.206041 36.4748 -0.0360958 -0.0482544 0.0308869 
116 1 1 10.6192 1.19354 36.4433 -0.0780801 0.0180604 0.137826 
117 1 1 11.4153 60.6056 36.2416 -0.0978186 0.100776 0.0693001 
118 1 1 12.1499 59.958 35.9466 -0.047637 0.0483391 0.0614696 
119 1 1 11.4755 61.6706 36.4103 0.0584347 -0.0645469 -0.0414293 
120 1 1 12.8749 59.2982 35.4521 0.0039931 0.0940198 0.0604941 
121 1 1 12.9953 58.1058 34.3812 0.00934097 0.00870115 0.199715 
122 1 1 13.2928 58.9427 34.9489 0.0272549 0.0983311 -0.0536236 
123 1 1 12.1338 56.8912 31.0703 -0.211312 0.0917582 -0.00537405 
124 1 1 11.6911 56.957 30.3352 -0.0970026 -0.263134 0.00046997 
125 1 1 10.7186 57.0944 29.3159 0.0166496 0.0183932 0.191007 
126 1 1 11.6132 57.0467 29.697 0.108363 0.141653 -0.0115 
127 1 1 9.70171 58.0485 28.1646 -0.0940027 0.0256674 0.0760367 
128 1 1 10.5117 57.6795 28.3955 0.122138 -0.0790008 0.0538848 
129 1 1 9.59544 58.6639 27.4655 0.239407 -0.0691744 -0.0363435 
130 1 1 13.534 57.8801 33.6643 -0.0823076 0.0892201 0.2078 
131 1 1 12.6235 56.9976 31.9079 0.044869 0.185192 0.14191 
132 1 1 13.2418 57.4197 32.902 -0.0829108 -0.0104761 0.0393909 
133 1 1 8.09587 1.52548 35.4545 0.182289 -0.213151 -0.0488048 
134 1 1 7.42608 1.75942 34.6723 -0.00754633 -0.080209 0.0162697 
135 1 1 6.3111 1.61731 32.6385 -0.0511457 0.022097 -0.109234 
136 1 1 6.99433 1.73145 33.9454 0.0280275 0.0444347 0.114124 
137 1 1 6.67857 1.94183 33.1946 -0.0157406 0.154115 0.0202404 
138 1 1 5.88779 0.801525 31.6067 -0.048961 -0.0984215 0.0908197 
139 1 1 6.23627 1.60153 31.9877 0.0806217 0.209549 -0.105208 
140 1 1 5.97839 0.804633 30.7305 0.0455573 -0.164954 -0.065466 
141 1 1 5.9207 61.8618 30.1684 0.0301749 -0.0655459 -0.00514529 
142 1 1 6.08636 61.1606 29.7419 -0.0480958 0.0713185 0.0132803 
143 1 1 6.55958 60.877 28.9559 -0.0207596 -0.0609756 -0.0608597 
144 1 1 8.80692 59.1696 27.3849 0.0724818 0.0212905 -0.206283 
145 1 1 7.51015 59.8831 28.158 0.0897113 -0.105337 -0.166382 
146 1 1 7.12574 60.4437 28.3217 -0.0257284 0.00289064 -0.0108917 
147 1 1 8.15409 59.7926 27.3902 -0.0337517 -0.018535 0.0240414 
148 1 1 9.79705 1.76194 36.2425 -0.0149213 0.14322 -0.0844208 
149 1 1 8.9409 2.1287 35.7388 -0.21843 0.13125 -0.129894 
150 1 1 11.6249 0.628756 36.4114 -0.0053255 -0.187359 -0.00512648 
151 1 1 10.503 2.04174 36.1182 -0.147327 -0.0225509 -0.251174 
152 1 1 11.5034 1.50754 36.1913 0.0118866 0.153187 0.0347409 
153 1 1 12.3258 60.9179 36.1507 0.164741 0.117417 -0.00870429 
154 1 1 13.0467 60.2929 35.7509 0.119917 -0.118652 -0.248327 
155 1 1 12.3442 61.9128 36.2611 -0.0201283 -0.0387316 -0.172543 
156 1 1 13.7139 59.7532 35.1387 -0.021768 -0.0509857 -0.138895 
157 1 1 13.8589 58.567 34.3137 0.0817801 -0.00869026 0.0934082 
158 1 1 14.0315 59.2324 34.677 0.0053085 -0.162131 -0.0803423 
159 1 1 12.8301 57.1492 31.0946 -0.097682 -0.0806168 -0.00413943 
160 1 1 12.4848 57.1829 30.2691 0.129105 -0.155942 -0.0612425 
161 1 1 12.2037 57.3431 29.3356 -0.1678 0.152339 0.0586859 
162 1 1 11.4766 57.508 28.7989 0.0808617 -0.0138461 0.261366 
163 1 1 10.3586 58.28 27.6601 -0.0956378 -0.0675692 -0.0816518 
164 1 1 11.081 57.9654 27.9623 -0.210049 -0.148519 -0.0434477 
165 1 1 9.65029 59.2367 26.7894 -0.0142009 0.17388 0.0780632 
166 1 1 10.2038 58.7879 27.1023 0.171423 0.117003 0.11113 
167 1 1 13.9972 57.9222 33.0976 0.06514 0.0548051 0.0745757 
168 1 1 14.2513 58.3937 33.6714 0.0291478 -0.0169495 0.0959075 
169 1 1 13.429 57.4656 31.6584 0.154844 -0.14796 -0.158273 
170 1 1 13.9569 57.8251 32.3114 -0.0248213 -0.140636 -0.00946927 
171 1 1 8.19922 2.44297 35.0584 -0.00479126 -0.344848 -0.0937825 
172 1 1 7.65066 2.61869 34.2611 -0.164346 -0.0203338 -0.0166786 
173 1 1 6.59518 2.12364 32.3505 0.0819044 0.109507 -0.0267075 
174 1 1 7.256 2.69766 33.5274 -0.10545 0.258827 -0.243711 
175 1 1 6.96481 2.63273 32.8031 -0.168887 0.0255826 0.0946283 
176 1 1 6.6642 2.28808 31.6198 0.00846702 0.0521249 0.109354 
177 1 1 6.19846 1.48113 31.1407 -0.0261382 0.118591 -0.0817544 
178 1 1 6.44085 1.5065 30.2621 0.00117125 0.0208558 0.0232322 
179 1 1 6.19545 0.593062 29.8109 0.20035 -0.18178 0.0768779 
180 1 1 6.29592 61.7704 29.2832 -0.127494 0.0820193 0.114718 
181 1 1 6.73984 61.832 28.6232 -0.0338015 0.0437142 -0.15949 
182 1 1 6.99774 61.2849 28.2396 -0.062329 -0.0586138 -0.0528469 
183 1 1 8.87828 59.83 26.6601 -0.0477174 0.0812692 0.0571025 
184 1 1 9.72731 59.7075 26.2447 0.14544 -0.0473118 0.16817 
185 1 1 7.59174 60.7305 27.5827 -0.0154948 0.0487693 -0.151496 
186 1 1 8.2658 60.4074 26.8883 0.0311075 0.184229 0.0860381 
187 1 1 9.81686 2.59405 35.7656 -0.0346499 -0.0728612 0.084029 
188 1 1 9.01837 2.94462 35.2567 -0.056298 -0.0766117 0.084044 
189 1 1 12.4295 0.837368 36.1586 0.052318 0.0532768 0.132564 
190 1 1 12.4666 1.6484 35.9113 -0.153502 0.030068 -0.0268999 
191 1 1 10.6593 2.72087 35.7347 -0.146979 0.0741692 -0.0947265 
192 1 1 11.2382 2.39088 35.8872 -0.169404 0.111293 -0.239517 
193 1 1 12.0056 2.16871 35.8124 0.111442 -0.20901 -0.190572 
194 1 1 13.1805 61.3373 35.8702 0.0253353 0.0320361 0.0337601 
195 1 1 13.838 60.7848 35.4036 -0.0260127 -0.0741482 0.0379002 
196 1 1 13.2436 0.209155 35.8797 0.0310007 0.0466319 0.0778506 
197 1 1 14.5098 60.1222 34.6909 0.0773346 -0.0120677 -0.0664862 
198 1 1 14.5663 59.144 34.1239 -0.0104118 0.0478158 -0.00391703 
199 1 1 13.3487 57.4924 30.77 0.0366319 -0.141465 0.0996944 
200 1 1 13.3486 57.5933 30.156 0.0444627 -0.109515 -0.0869669 
201 1 1 12.8622 57.5322 29.475 0.0488497 -0.082235 -0.265133 
202 1 1 12.4172 57.7103 28.6961 0.127029 0.0563139 0.250666 
203 1 1 11.8801 57.9704 27.8493 0.0408135 0.0428918 0.00810191 
204 1 1 11.1988 58.4997 27.154 0.0103168 -0.161087 0.150378 
205 1 1 10.6034 59.2143 26.3452 -0.0337614 0.0545241 0.025035 
206 1 1 14.5443 58.4289 32.819 0.0988184 0.0552381 0.224242 
207 1 1 14.918 59.0229 33.3352 -0.150949 0.0606048 0.111131 
208 1 1 14.1142 57.9001 31.3688 -0.108541 0.113413 0.009747 
209 1 1 14.6801 58.4481 31.9026 0.13235 -0.12807 -0.0267786 
210 1 1 8.41086 3.23105 34.5032 0.084751 0.0725025 -0.0256302 
211 1 1 7.9976 3.40295 33.7185 -0.0468378 -0.0357298 0.184958 
212 1 1 7.1067 2.92122 32.1619 0.0490837 0.0760818 0.0132221 
213 1 1 7.68033 3.42382 32.8479 0.141258 0.216422 -0.204114 
214 1 1 7.12672 3.03085 31.2553 -0.0925451 -0.04466 -0.250013 
215 1 1 6.64194 2.2931 30.7885 0.261372 0.00899741 -0.108704 
216 1 1 10.2092 59.834 25.6638 0.0285152 0.00237112 -0.0923899 
217 1 1 9.3975 60.3322 25.7674 -0.121311 -0.194223 -0.0720805 
218 1 1 6.87387 2.34119 29.9159 0.00780569 -0.0268936 -0.0633056 
219 1 1 6.74848 1.57004 29.4046 0.122044 0.127678 -0.0138689 
220 1 1 6.64957 0.671832 28.9043 -0.288281 0.0511283 0.0800661 
221 1 1 7.02615 0.175945 28.069 -0.0278461 0.0161571 -0.221994 
222 1 1 7.39791 61.6481 27.4401 0.117338 -0.0231851 0.0674091 
223 1 1 8.62595 60.6859 26.2895 0.0946896 -0.0838673 0.087818 
224 1 1 8.0242 61.2328 26.6891 0.0528497 -0.0206763 -0.0772183 
225 1 1 9.20586 3.66285 34.5123 -0.068211 -0.0862018 -0.0805564 
226 1 1 10.141 3.33688 35.1649 0.169669 -0.0539345 0.0154567 
227 1 1 13.2023 1.10158 35.6765 0.0310079 0.0784589 0.0168924 
228 1 1 13.1171 1.79388 35.4346 0.00698098 -0.0714963 -0.0333055 
229 1 1 12.5976 2.32933 35.3924 0.0604066 0.0328244 0.00591981 
230 1 1 11.2352 3.11455 35.3398 0.0230967 0.0263869 0.0129841 
231 1 1 11.9718 2.7375 35.4428 -0.155738 -0.101661 0.0395466 
232 1 1 13.9279 61.7363 35.4285 0.0401043 0.120329 0.0561526 
233 1 1 14.5263 61.2167 34.8534 0.141399 0.121756 -0.0147975 
234 1 1 13.9264 0.58705 35.2786 -0.0416238 0.00351385 0.121434 
235 1 1 14.9921 60.8884 34.141 -0.0135494 -0.00251926 -0.0818548 
236 1 1 14.9943 59.8459 33.8135 0.0136326 -0.154034 0.0431286 
237 1 1 13.9779 57.8906 30.4616 -0.201368 0.104586 -0.029614 
238 1 1 13.9245 58.0044 29.5136 -0.124645 -0.168568 0.119945 
239 1 1 13.2989 57.922 28.6526 0.177751 0.0820154 0.00682199 
240 1 1 12.7334 58.1083 27.833 -0.007159 0.0644198 -0.0832053 
241 1 1 12.2381 58.4667 27.0114 -0.0150447 0.0196648 -0.0609606 
242 1 1 11.6578 58.9171 26.3123 0.0611719 0.133382 0.0473787 
243 1 1 11.0996 59.4477 25.5955 0.135066 0.0750922 0.136208 
244 1 1 15.0743 59.0241 32.4536 -0.0210599 0.0554749 0.0139022 
245 1 1 15.3618 59.8464 33.0303 0.115345 0.15501 0.00534695 
246 1 1 14.7422 58.4722 30.9155 -0.19344 0.019883 -0.0741038 
247 1 1 15.2713 59.0962 31.4891 -0.0336775 0.199996 -0.0104703 
248 1 1 8.73236 3.82296 33.8241 -0.101151 -0.168534 -0.175914 
249 1 1 8.39072 3.86641 33.1985 0.124109 0.0774196 -0.0618318 
250 1 1 7.66956 3.58808 31.8685 -0.142908 -0.0047511 0.0334601 
251 1 1 8.31855 4.01236 32.4392 0.0369573 0.0723621 -0.011615 
252 1 1 7.63894 3.7298 30.7903 0.0466486 -0.039976 0.052431 
253 1 1 7.15747 3.02303 30.3881 0.0263364 0.0490696 -0.0270078 
254 1 1 10.6599 60.1641 24.8862 0.0338886 -0.17961 -0.122075 
255 1 1 9.87036 60.5986 25.1205 0.0569771 -0.139664 -0.129591 
256 1 1 9.06597 61.0882 25.499 0.0161751 -0.0430466 0.0552368 
257 1 1 7.26603 2.96156 29.4755 0.00219121 0.0489698 0.0864718 
258 1 1 7.09254 2.29364 28.9595 0.0979471 -0.0424985 0.0932045 
259 1 1 7.00698 1.63916 28.6751 -0.0813179 0.00694076 -0.0106659 
260 1 1 7.14146 1.19129 27.983 -0.0471846 -0.115523 -0.158612 
261 1 1 7.43492 0.665425 27.3419 -0.10789 0.0764785 0.109183 
262 1 1 7.84 0.106185 26.6483 0.0760484 0.0343758 -0.252586 
263 1 1 8.35723 61.6313 25.9771 0.0523749 -0.248455 0.162278 
264 1 1 9.40936 4.12143 33.8636 0.0733973 0.0507209 -0.21551 
265 1 1 10.0643 4.065 34.2954 0.0506286 -0.0141553 0.08713 
266 1 1 10.9686 3.80781 34.72 0.101727 -0.0255181 -0.0192482 
267 1 1 13.9002 1.46362 34.9666 -0.0398634 -0.13593 0.00282922 
268 1 1 13.3529 2.34815 34.9634 -0.00585706 0.0668976 -0.0557347 
269 1 1 12.6818 2.9325 34.9717 0.0395504 -0.119269 -0.0978899 
270 1 1 11.8578 3.47434 34.9083 0.202097 -0.16893 0.0738603 
271 1 1 14.5451 0.0994119 34.7484 -0.0243258 -0.0530179 -0.226739 
272 1 1 14.8994 61.6424 34.3807 -0.0140925 -0.11624 0.0384912 
273 1 1 14.4185 0.848418 34.6764 -0.134058 0.0590333 0.0218593 
274 1 1 15.2762 61.6754 33.8103 0.00705107 -0.048462 0.109941 
275 1 1 15.3989 60.7041 33.4375 0.0746557 -0.0558199 -0.0433233 
276 1 1 14.7011 58.4351 30.0326 -0.065722 -0.241029 -0.0919947 
277 1 1 14.6427 58.6166 29.313 -0.175626 0.0956351 0.0863113 
278 1 1 14.2443 58.3875 28.5511 -0.00485871 -0.0261385 0.07673 
279 1 1 13.7155 58.3383 27.8562 0.0871232 -0.00535506 -0.00618042 
280 1 1 13.2362 58.4677 27.047 -0.166658 0.0594965 0.0641503 
281 1 1 12.6764 58.8213 26.345 -0.16322 0.0633241 -0.0387609 
282 1 1 12.0612 59.183 25.5963 -0.0185579 0.00809027 0.0569321 
283 1 1 11.5832 59.7627 24.7725 -0.0453485 0.316472 -0.127724 
284 1 1 15.5592 59.7164 32.0934 -0.197789 -0.0705264 0.0931784 
285 1 1 15.7499 60.5201 32.4276 0.216512 0.132284 -0.0354007 
286 1 1 15.302 59.0941 30.5373 -0.0589331 -0.024531 0.0669127 
287 1 1 15.7424 59.7251 31.1718 -0.0142427 0.0710352 0.0441346 
288 1 1 9.05683 4.2842 32.9757 -0.176059 0.107495 -0.150372 
289 1 1 8.22127 4.09118 31.5109 -0.0589869 -0.198744 -0.0482331 
290 1 1 8.75544 4.34837 32.0208 0.0072555 -0.0904216 -0.176516 
291 1 1 11.1049 60.4226 24.0924 0.11161 -0.116108 0.0761728 
292 1 1 8.27701 4.30541 30.4838 0.109495 -0.0325186 0.124605 
293 1 1 7.7023 3.67143 29.9435 -0.146819 -0.0402738 -0.124193 
294 1 1 10.2531 60.9206 24.3601 0.0036537 -0.0436355 -0.000984381 
295 1 1 9.53004 61.3662 24.7231 -0.0901205 -0.0345358 0.0487744 
296 1 1 8.85481 61.9346 25.2158 -0.000720226 -0.0639534 0.0867693 
297 1 1 7.74886 3.4945 29.0453 0.0199613 -0.0480725 0.146009 
298 1 1 7.48439 2.91435 28.7379 0.0146238 0.0825948 -0.146162 
299 1 1 7.51325 2.24072 27.985 0.0398388 0.1264 0.161957 
300 1 1 7.61228 1.59201 27.1549 0.062929 0.117261 -0.00287744 
301 1 1 7.86398 1.05022 26.4267 -0.174912 -0.0104289 -0.0039105 
302 1 1 8.28154 0.532186 25.8032 -0.0190346 0.0332465 -0.136052 
303 1 1 11.7037 4.00479 34.2093 -0.0569279 0.174307 0.0441537 
304 1 1 9.93032 4.44952 33.4849 0.0286002 -0.105901 0.0104393 
305 1 1 10.8166 4.304 33.9559 0.0831793 0.000250095 -0.0238273 
306 1 1 14.5551 1.42393 34.2538 -0.020756 -0.0734997 0.157969 
307 1 1 14.1357 2.19006 34.3474 0.0861861 -0.0547734 0.080342 
308 1 1 13.4565 2.9247 34.4582 -0.0165858 0.120017 -0.017931 
309 1 1 12.6192 3.57145 34.3867 0.0541237 -0.116627 0.00568892 
310 1 1 15.0196 0.569939 34.0371 0.160852 0.0463248 0.249915 
311 1 1 15.5509 0.208059 33.3211 0.147083 0.135562 0.112318 
312 1 1 15.8047 61.4616 32.8706 -0.158586 0.11486 -0.208518 
313 1 1 15.3548 59.1911 29.6432 -0.0330621 -0.159562 -0.0807951 
314 1 1 14.9863 58.967 28.7583 0.0314301 0.226271 -0.0930657 
315 1 1 14.5961 58.8028 27.7981 -0.143984 -0.0298133 -0.237473 
316 1 1 14.111 58.7688 27.0464 0.104574 0.0777549 -0.0929505 
317 1 1 13.6287 58.8767 26.1495 0.0401944 0.00252402 -0.199304 
318 1 1 12.9725 59.1916 25.4136 -0.043985 0.0511845 0.129199 
319 1 1 12.4879 59.5946 24.6353 0.0411126 0.202598 0.156539 
320 1 1 11.9235 60.1481 23.9022 0.0364874 0.0179476 0.124537 
321 1 1 16.0167 60.4247 31.5537 -0.0114474 -0.249548 0.082636 
322 1 1 16.0912 61.1066 31.9788 0.0663323 0.132152 -0.0494838 
323 1 1 15.8587 59.7287 30.2253 0.0254401 0.00338108 0.000874672 
324 1 1 16.0664 60.2056 30.8512 0.0220343 -0.104938 -0.087419 
325 1 1 9.94352 4.688 32.6513 0.0831301 0.283173 0.131036 
326 1 1 9.46556 4.70948 32.1039 0.111086 -0.0382725 0.114133 
327 1 1 8.98012 4.66382 31.1645 -0.0106621 -0.0629489 -0.174454 
328 1 1 8.87587 4.78238 30.1315 0.0433573 -0.0214653 -0.0029527 
329 1 1 11.4611 60.8187 23.2712 0.10969 0.0529077 0.153683 
330 1 1 10.6724 61.2447 23.533 -0.109465 0.0407527 0.0836997 
331 1 1 8.36871 4.29907 29.4785 -0.0929926 0.0247775 -0.00528593 
332 1 1 9.84709 61.7607 23.9625 -0.0741189 0.00771787 0.0618122 
333 1 1 9.24316 0.330064 24.4465 -0.195771 -0.136278 -0.176684 
334 1 1 8.73879 0.959887 24.992 -0.0616291 -0.217125 0.0217244 
335 1 1 8.19452 4.04749 28.6552 0.0224177 -0.13789 -0.0588442 
336 1 1 7.96855 3.37903 28.0674 0.0238059 -0.0611295 -0.221392 
337 1 1 7.97113 2.68766 27.1635 -0.149333 0.000375888 0.00703328 
338 1 1 8.0456 2.00063 26.4471 0.0148249 0.0446478 0.0104193 
339 1 1 8.34692 1.49682 25.5755 0.0791597 0.0308581 0.0510109 
340 1 1 15.0121 1.48765 33.7212 -0.0044063 0.00617223 -0.0194733 
341 1 1 12.5338 4.04102 33.7112 -0.0689543 0.0129694 0.00168028 
342 1 1 11.6432 4.51433 33.376 0.00417706 -0.0346985 0.0466741 
343 1 1 10.7169 4.74252 32.9234 -0.101755 0.044513 -0.0774665 
344 1 1 14.7202 2.20551 33.7332 0.146611 0.0254117 -0.0305455 
345 1 1 14.1109 2.94722 33.7875 0.094268 0.00965121 0.0895394 
346 1 1 13.358 3.56714 33.8084 0.0074943 0.00794678 -0.272527 
347 1 1 13.2551 4.09469 33.1727 0.066411 0.116458 0.109464 
348 1 1 15.4791 0.917769 33.2675 0.0666117 -0.209208 -0.0988197 
349 1 1 15.9129 0.434803 32.6578 0.0606414 -0.056692 0.0990652 
350 1 1 16.2024 61.9195 31.8253 0.12716 0.100088 -0.0381146 
351 1 1 15.9246 59.9316 29.4462 -0.0458038 -0.195329 0.0661506 
352 1 1 15.6411 59.6235 28.7415 0.191037 -0.0766043 0.0107944 
353 1 1 15.3746 59.3809 27.8657 0.0460573 -0.0979434 -0.23806 
354 1 1 15.0521 59.2508 26.9844 -0.00167461 0.117907 -0.0313001 
355 1 1 14.5709 59.1181 26.2511 -0.0849626 -0.0121249 0.114016 
356 1 1 13.9802 59.216 25.3572 -0.0337558 0.103273 -0.0455037 
357 1 1 13.4931 59.5173 24.5426 0.0526204 0.0799633 -0.02347 
358 1 1 12.8545 59.8682 23.7621 0.0634166 0.261525 0.0408639 
359 1 1 12.3453 60.4777 23.0848 0.0225679 -0.0370239 0.0822681 
360 1 1 16.3811 61.1929 31.0783 -0.0398865 -0.0486074 -0.0591725 
361 1 1 16.3171 60.6783 29.9929 -0.00233213 0.0172128 0.0202402 
362 1 1 10.2838 5.06347 32.0325 0.0414979 0.0565218 0.149597 
363 1 1 9.84761 5.09159 31.3242 0.0771959 -0.0876071 -0.184098 
364 1 1 9.5509 5.17334 30.3438 -0.000135031 -0.188479 -0.182518 
365 1 1 9.2053 4.99469 29.5318 0.0771516 0.0381552 -0.0287602 
366 1 1 11.9008 61.0619 22.3785 -0.0285936 -0.0425627 0.104887 
367 1 1 11.067 61.5562 22.6568 -0.0789867 0.110667 -0.144468 
368 1 1 10.2798 0.0493679 23.0811 0.00260272 0.00406359 -0.123337 
369 1 1 8.85018 4.73307 28.6924 -0.0198731 -0.0856147 -0.014973 
370 1 1 9.67094 0.72563 23.5464 -0.0606617 -0.160551 -0.0580284 
371 1 1 9.11612 1.29647 24.1644 -0.069942 -0.0560474 0.0438662 
372 1 1 8.72285 1.9494 24.7995 -0.100274 0.127366 0.0393173 
373 1 1 8.53117 4.24981 27.9659 0.16914 0.00527025 -0.0421635 
374 1 1 8.34724 3.69555 27.1762 0.119639 0.109346 0.130803 
375 1 1 8.38567 3.00286 26.4714 0.0464566 -0.0897834 0.190603 
376 1 1 8.48083 2.48267 25.6271 -0.0238088 -0.105702 0.0104935 
377 1 1 15.3331 1.96398 33.0181 -0.0556731 -0.20455 0.0450663 
378 1 1 12.501 4.5157 32.9796 0.0895491 -0.161281 0.0607524 
379 1 1 11.8096 4.84674 32.7396 0.0322752 -0.0573161 -0.185687 
380 1 1 11.325 5.13582 32.1338 0.0412684 -0.0521154 -0.127329 
381 1 1 14.8349 2.94074 33.0476 -0.00552655 0.0281923 -0.00309384 
382 1 1 14.0835 3.56973 33.2348 -0.093596 0.169665 0.041003 
383 1 1 13.8703 4.25603 32.5671 -0.0690854 -0.116988 0.0472695 
384 1 1 13.189 4.58175 32.5814 0.0373917 -0.113526 0.104377 
385 1 1 15.9201 1.28167 32.4469 0.0554419 0.0391985 0.0213643 
386 1 1 16.3777 0.740113 31.8242 0.0480107 0.0168279 -0.0759444 
387 1 1 16.6631 0.221864 31.0301 0.0903819 0.0417902 0.00128883 
388 1 1 16.2491 60.3826 28.9526 0.0151358 -0.102671 -0.150459 
389 1 1 16.0935 60.0913 28.082 0.0844998 -0.0201609 0.12634 
390 1 1 15.8286 59.8382 27.1286 -0.176303 -0.0684293 0.0312219 
391 1 1 15.4668 59.6277 26.1813 -0.168051 0.0647965 -0.128701 
392 1 1 14.9674 59.5191 25.3657 -0.0555776 -0.215992 -0.0477172 
393 1 1 14.4685 59.6051 24.5348 -0.0153197 0.0572849 0.0127473 
394 1 1 13.9178 59.8452 23.7789 -0.138388 0.00344888 -0.0551426 
395 1 1 13.3751 60.3556 22.9775 -0.246844 0.130972 -0.0841628 
396 1 1 12.8053 60.8252 22.146 -0.0897268 -0.177996 -0.0381054 
397 1 1 16.717 61.6567 30.2022 -0.0297988 -0.138883 -0.11093 
398 1 1 16.7237 61.1846 29.1527 -0.0979802 -0.00936079 -0.022602 
399 1 1 10.9376 5.42166 31.4015 -0.0138787 0.144826 0.0245781 
400 1 1 10.3378 5.48729 30.6634 0.0415531 0.088234 0.124271 
401 1 1 10.0189 5.58534 29.7602 -0.0338713 -0.0137959 0.0725068 
402 1 1 12.3384 61.4731 21.5575 0.0942949 -0.164983 0.0603628 
403 1 1 9.62363 5.38805 28.8385 -0.151949 -0.145467 -0.0361078 
404 1 1 11.5004 61.8686 21.8255 -0.0766802 0.130731 -0.036449 
405 1 1 10.6992 0.386548 22.2162 -0.0424515 -0.169887 -0.0348426 
406 1 1 10.0923 1.01413 22.7124 0.0232064 -0.14417 -0.102074 
407 1 1 9.23906 5.00535 27.9799 0.0668085 0.0121211 -0.0336525 
408 1 1 9.5312 1.69621 23.3424 0.0299695 0.169312 -0.0542978 
409 1 1 9.1147 2.28543 24.0588 -0.0812712 -0.0986565 0.0207805 
410 1 1 8.82916 2.84543 24.8421 -0.0123627 0.101475 -0.0255395 
411 1 1 8.90656 4.58684 27.1689 -0.0548807 -0.0434743 0.0706945 
412 1 1 8.71563 3.99362 26.4302 -0.0612154 0.065057 -0.257509 
413 1 1 8.80072 3.48363 25.6318 -0.0537661 -0.0385255 0.0217828 
414 1 1 15.3068 2.91075 32.5079 0.143954 -0.0385231 -0.181472 
415 1 1 15.8042 2.38368 32.1735 -0.00633431 -0.0138295 -0.200528 
416 1 1 12.4829 5.1237 32.1189 -0.12772 0.0455245 0.10193 
417 1 1 11.9167 5.58393 31.453 0.170859 0.0178737 -0.0355104 
418 1 1 14.7412 3.69148 32.5028 -0.0624135 -0.0445257 0.0864679 
419 1 1 14.4351 4.35165 32.0036 0.0161202 -0.101112 -0.0621378 
420 1 1 13.673 4.95112 31.7777 -0.155847 0.109106 -0.079862 
421 1 1 16.3047 1.81636 31.773 0.0684005 -0.0221814 -0.103084 
422 1 1 16.7252 1.22524 31.0617 0.175139 0.0695791 -0.0910869 
423 1 1 16.9974 0.681809 30.258 0.128493 -0.0401151 0.0584778 
424 1 1 16.6822 60.838 28.2131 -0.0623111 0.0154906 0.0187307 
425 1 1 16.444 60.6008 27.2592 -0.0299253 0.00583763 0.0999878 
426 1 1 16.1717 60.1865 26.2462 0.0552193 -0.151679 0.104439 
427 1 1 15.8354 59.9776 25.3072 -0.0733233 0.0521002 -0.0605005 
428 1 1 15.4227 59.9364 24.4644 -0.0936366 -0.0253476 0.187678 
429 1 1 13.2328 61.2585 21.3337 0.132191 0.0408535 0.0146806 
430 1 1 14.9127 60.0094 23.6793 0.0623311 -0.0526822 0.120544 
431 1 1 14.3849 60.2415 22.9534 0.045106 -0.0163224 0.10673 
432 1 1 13.7399 60.6991 22.1291 -0.0496479 -0.00586697 0.0599437 
433 1 1 17.0786 0.0984615 29.4115 0.153425 -0.0248346 0.108426 
434 1 1 17.1085 61.6901 28.4446 0.00789167 0.181371 -0.164077 
435 1 1 11.3223 5.86506 30.6345 0.0997764 -0.146477 0.0765286 
436 1 1 10.809 6.00704 29.8721 -0.156811 -0.0355629 -0.023593 
437 1 1 10.4379 5.91754 28.9693 0.00882557 -0.211545 -0.0338981 
438 1 1 12.7708 61.9346 20.7044 -0.0626969 -0.175865 0.00644885 
439 1 1 11.901 0.34065 20.9927 -0.0506689 0.144337 -0.0727103 
440 1 1 10.0066 5.78009 28.1048 -0.173179 0.137918 0.103945 
441 1 1 11.1361 0.814903 21.4462 -0.146825 -0.0026268 0.0831571 
442 1 1 10.4783 1.33 21.9462 -0.0538077 -0.00481016 -0.15027 
443 1 1 9.99036 1.96958 22.4733 0.00145852 0.0134432 -0.0309349 
444 1 1 9.55315 5.47691 27.2764 -0.125799 -0.0496832 -0.105238 
445 1 1 9.54731 2.66392 23.1701 -0.0656117 -0.0162532 0.106374 
446 1 1 9.25709 3.29318 23.9623 -0.0606222 -0.309732 0.143605 
447 1 1 9.16371 3.81789 24.8576 -0.0434992 -0.0226676 -0.0782681 
448 1 1 9.29343 4.9921 26.4328 0.0283442 0.0992876 -0.0676207 
449 1 1 9.19307 4.48992 25.7021 0.0577518 -0.0341838 -0.0881983 
450 1 1 15.4832 3.31959 32.0006 -0.0820757 -0.12366 -0.159736 
451 1 1 16.2081 2.81384 31.4462 -0.00991432 0.0967081 0.0266478 
452 1 1 13.005 5.58214 31.1959 -0.0464764 0.0666075 -0.0148436 
453 1 1 12.3181 5.97455 30.6074 0.0737236 0.144494 -0.0736614 
454 1 1 15.1698 4.09755 31.6971 0.169697 0.14644 0.0448234 
455 1 1 14.6047 4.78694 31.3971 -0.000226896 0.142961 0.178474 
456 1 1 14.0153 5.44969 30.9454 -0.0364425 0.0663303 -0.0894565 
457 1 1 16.6729 2.194 30.9422 -0.0654335 0.0666735 -0.0074549 
458 1 1 17.0747 1.68405 30.1995 -0.0407224 0.0124138 0.0833757 
459 1 1 17.3503 1.06746 29.4298 -0.0650886 -0.0714371 -0.151329 
460 1 1 17.0638 61.2906 27.5118 -0.0644393 -0.0369977 -0.0474384 
461 1 1 16.905 60.9149 26.4751 -0.12061 -0.113107 -0.065414 
462 1 1 16.6273 60.5802 25.5306 -0.0803549 -0.19412 -0.025835 
463 1 1 16.2979 60.4064 24.5647 -0.00420668 0.142559 -0.0625 
464 1 1 15.8688 60.2868 23.6717 0.049664 0.0419536 -0.165026 
465 1 1 13.6474 61.6597 20.5707 0.186752 0.100138 0.250255 
466 1 1 14.1899 61.0634 21.2994 -0.0275048 -0.0383443 -0.0168598 
467 1 1 15.2935 60.3575 22.8462 0.0365562 0.105653 -0.0942201 
468 1 1 14.7603 60.6335 22.0674 0.00668975 -0.0324726 -0.0247455 
469 1 1 17.4444 0.498165 28.537 0.0930621 0.115919 -0.0754701 
470 1 1 17.5429 0.128617 27.5726 -0.0097791 -0.166058 -0.0374087 
471 1 1 11.7506 6.28567 29.8439 0.0984719 0.0218635 -0.151712 
472 1 1 11.2698 6.3554 29.0621 0.0496917 -0.0969874 -0.038574 
473 1 1 10.8208 6.30972 28.124 0.044987 0.0884329 -0.0476861 
474 1 1 13.183 0.362015 19.9635 -0.0280338 0.0657429 -0.0116382 