ITEM: TIMESTEP
0
ITEM: NUMBER OF ATOMS
61833
ITEM: BOX BOUNDS pp pp pp
0 62
0 62
0 62
ITEM: ATOMS id mol type x y z vx vy vz 
1 1 1 34.2094 17.9097 6.45182 0.192022 0.143887 -0.0381703 
2 1 1 34.2776 17.1551 6.87103 0.101908 -0.232201 -0.0260138 
3 1 1 34.3215 17.2282 5.88662 0.0808042 -0.00704608 0.239244 
4 1 1 34.3279 16.4239 6.3166 -0.030669 -0.0905804 -0.103902 
5 1 1 34.1417 18.0657 5.50875 -0.125134 0.0645291 0.196539 
6 1 1 34.263 16.5111 5.27599 -0.0245983 -0.0648779 -0.0599573 
7 1 1 34.1798 15.6145 5.65801 -0.106331 -0.0724497 -0.122806 
8 1 1 34.0569 17.9848 7.31096 0.00341743 -0.0440202 -0.031067 
9 1 1 34.0284 17.1632 7.84411 0.00876741 0.00726821 0.0551091 
10 1 1 34.1864 16.4001 7.31724 -0.0574971 -0.0253184 0.0165003 
11 1 1 34.1799 15.6719 6.73116 0.0213174 0.0281932 0.0684513 
12 1 1 33.9766 14.9241 6.32963 -0.017519 0.0347977 -0.0828131 
13 1 1 33.9042 18.7612 6.7335 -0.0431686 -0.0969023 -0.180943 
14 1 1 34.0105 18.5918 6.01421 0.142334 0.0509798 0.0502894 
15 1 1 33.8149 18.9033 5.36375 0.0332135 0.0580774 -0.0170214 
16 1 1 34.162 17.3679 4.9138 -0.0804347 -0.0876919 0.00949254 
17 1 1 33.8826 18.2639 4.62507 0.0473871 0.0253033 0.0344212 
18 1 1 33.8768 14.7578 5.58275 0.0410462 -0.0939733 0.165879 
19 1 1 33.8593 15.0782 4.84551 0.0722302 0.0730258 0.045203 
20 1 1 34.0162 15.8342 4.63407 -0.0405677 -0.0949593 -0.134785 
21 1 1 33.9974 16.6497 4.30549 -0.0823569 -0.101218 0.114444 
22 1 1 33.5585 19.3123 7.10099 -0.0390881 0.0934163 -0.0661222 
23 1 1 33.7298 18.5783 7.74866 -0.100025 -0.064813 0.0118899 
24 1 1 33.7202 17.8503 8.31134 0.133492 -0.0871369 0.0272059 
25 1 1 33.6056 17.163 8.72462 0.114297 -0.0933017 0.0700368 
26 1 1 33.8204 16.3266 8.31121 -0.0177422 -0.124061 -0.100312 
27 1 1 33.9006 15.5539 7.77806 0.0571874 -0.0813189 0.146454 
28 1 1 33.5879 14.156 6.00672 -0.176436 -0.0627681 -0.14874 
29 1 1 33.7978 14.8434 7.29698 -0.009151 -0.0648413 0.0551025 
30 1 1 33.527 14.1494 6.84017 -0.0956085 -0.0388757 -0.0854909 
31 1 1 33.577 19.4628 6.13301 0.116373 0.200306 0.135364 
32 1 1 33.4322 19.5121 5.16503 -0.0498884 -0.157648 0.0806537 
33 1 1 33.4997 19.0359 4.47895 -0.0320217 0.0174537 0.0120571 
34 1 1 33.7754 17.567 3.94493 -0.013823 0.121675 -0.133881 
35 1 1 33.4367 18.4946 3.81058 -0.0618276 0.0470553 0.0335689 
36 1 1 33.5495 14.2801 5.14404 -0.0635867 -0.0730741 0.03456 
37 1 1 33.3837 14.4759 4.31954 -0.0450382 0.142554 -0.0231273 
38 1 1 33.1438 13.6052 5.51988 -0.11029 -0.176971 -0.116001 
39 1 1 33.568 15.2345 3.96093 0.104679 0.0788798 0.114253 
40 1 1 33.6175 15.9356 3.68289 -0.200707 0.0144523 -0.0717471 
41 1 1 33.498 16.8405 3.34776 0.000428481 -0.100626 0.00893545 
42 1 1 33.1752 19.9213 6.90068 -0.00772964 -0.00977219 0.0602083 
43 1 1 32.9932 19.7849 7.80493 -0.0508824 -0.112333 -0.0154652 
44 1 1 33.2433 19.1543 8.19904 -0.0218174 0.0916237 -0.0139839 
45 1 1 33.3971 18.4949 8.52338 0.0580056 0.0212698 -0.0999769 
46 1 1 33.2008 18.0079 9.07919 0.0482704 -0.107938 0.141709 
47 1 1 32.9848 17.3438 9.51798 -0.0557385 0.105048 0.0133673 
48 1 1 33.2977 16.4206 9.17201 0.058769 0.105405 -0.115092 
49 1 1 33.4419 15.5086 8.69373 -0.0211246 0.105457 -0.0997125 
50 1 1 33.4131 14.7555 8.20343 -0.0980701 0.116343 -0.0292724 
51 1 1 33.12 13.5291 6.4023 -0.0140201 -0.00931939 0.0109108 
52 1 1 33.2453 14.0797 7.68288 0.0132585 -0.0333523 -0.0507315 
53 1 1 33.0868 13.6244 7.10186 -0.0606841 0.153509 -0.0132788 
54 1 1 32.9807 20.2309 6.25037 0.0215466 -0.0217858 0.109154 
55 1 1 32.4118 20.6634 6.95423 0.170128 -0.0188188 -0.169769 
56 1 1 33.0863 20.0623 5.53148 -0.0188829 0.0551491 -0.099097 
57 1 1 33.0164 19.8506 4.64581 0.0377596 -0.0645784 -0.037233 
58 1 1 32.4191 20.7005 5.55732 0.0132493 -0.0730582 0.0491797 
59 1 1 32.9542 19.3559 3.79959 -0.0248118 0.099028 -0.102894 
60 1 1 33.2236 17.8078 3.14125 -0.0641863 0.323804 -0.127283 
61 1 1 32.8219 18.7898 3.13976 0.0600792 0.0283505 -0.0692064 
62 1 1 33.1489 14.7092 3.65189 -0.0347987 -0.0976005 -0.0294375 
63 1 1 33.0336 13.7614 4.66126 -0.0285697 -0.068494 -0.130688 
64 1 1 32.791 13.9968 3.8393 0.110322 0.126298 -0.194288 
65 1 1 32.6269 13.0264 6.01173 0.0406241 -0.148907 0.00366712 
66 1 1 32.5752 13.1317 5.07424 0.107405 -0.127929 0.013625 
67 1 1 33.1034 15.239 3.22955 -0.0181929 0.082481 0.101854 
68 1 1 33.0595 16.1127 2.85916 0.320586 -0.226662 -0.0655769 
69 1 1 32.8937 17.0933 2.62315 0.0204727 0.26355 -0.0842764 
70 1 1 32.6268 20.2603 7.64 0.0314209 0.103194 0.117667 
71 1 1 32.5777 19.8569 8.4184 -0.112527 0.0606677 0.0291015 
72 1 1 32.7202 18.9734 9.11582 0.0309843 -0.0235747 0.0140919 
73 1 1 32.5255 18.2091 9.72454 -0.0322338 -0.0325524 -0.0105145 
74 1 1 32.3323 17.4358 10.0923 0.0930318 0.0249149 0.00417347 
75 1 1 32.6441 16.5439 9.88172 0.106015 0.136128 -0.0433209 
76 1 1 32.8503 15.6028 9.49192 0.119091 0.124713 -0.0348269 
77 1 1 32.9042 14.7399 8.9791 -0.0485791 -0.00671614 0.0174998 
78 1 1 32.7899 14.0527 8.50001 -0.218663 0.0328374 0.0591977 
79 1 1 32.5944 13.0779 6.91593 0.0419468 0.164306 -0.0251038 
80 1 1 32.5375 13.3621 7.86871 0.056004 -0.0747302 -0.200476 
81 1 1 32.0045 12.5796 6.50702 0.112312 0.0212945 0.112863 
82 1 1 31.771 20.9176 7.60792 0.137814 0.0811352 -0.128118 
83 1 1 32.1055 20.968 6.2209 0.0135914 -0.0395326 0.089073 
84 1 1 31.7606 21.1138 6.88148 -0.0303872 -0.243359 -0.135681 
85 1 1 32.4509 20.5354 4.95375 -0.00352007 -0.0106586 -0.12768 
86 1 1 32.3866 20.1668 4.03296 -0.00260863 0.0838827 -0.099376 
87 1 1 31.8222 21.0576 5.27919 -0.0822227 -0.0335846 0.00537333 
88 1 1 32.2391 19.6292 3.19577 0.00103764 -0.129606 -0.0752818 
89 1 1 32.5226 18.0823 2.49099 -0.00445192 -0.180649 -0.104554 
90 1 1 32.0149 19.0676 2.56468 0.0818337 -0.0937557 0.117493 
91 1 1 32.5002 14.5403 2.98169 -0.146919 -0.00567238 -0.0260996 
92 1 1 32.392 13.3566 4.16712 -0.176069 0.0965874 0.116425 
93 1 1 32.0926 13.7049 3.32969 -0.00725284 -0.117076 0.0577636 
94 1 1 31.9915 12.5997 5.52667 -0.191693 0.0511068 0.0163196 
95 1 1 31.877 12.7805 4.56996 -0.0643791 -0.198044 0.0713078 
96 1 1 32.4801 15.4114 2.49489 0.202359 -0.0144061 0.0582653 
97 1 1 32.4148 16.3725 2.21121 0.0180325 0.00879174 -0.303191 
98 1 1 32.0949 17.4377 2.00652 -0.0259731 0.17076 -0.00575884 
99 1 1 31.9522 20.4653 8.32138 -0.127245 -0.152447 -0.0778733 
100 1 1 31.9179 19.8454 9.15382 -0.0131318 0.0178386 0.0166918 
101 1 1 31.8581 19.0885 9.80185 -0.0368627 0.120371 0.17624 
102 1 1 31.6946 18.2659 10.2968 -0.138923 0.112753 -0.027297 
103 1 1 32.0441 16.7257 10.3417 0.0295084 0.0596438 -0.172758 
104 1 1 31.6513 17.3135 10.54 0.129202 0.043181 -0.10605 
105 1 1 32.0317 15.7565 10.2193 -0.1223 -0.0971433 0.0793972 
106 1 1 32.2739 14.7978 9.65657 -0.0465124 0.00260207 -0.0206554 
107 1 1 32.2308 14.0507 9.15356 0.0796514 0.12866 0.11444 
108 1 1 32.1511 13.5445 8.6913 -0.14317 -0.0238532 -0.0127731 
109 1 1 31.3292 12.1397 6.03164 0.0235962 0.122291 0.104894 
110 1 1 31.9142 12.7217 7.47299 -0.0683521 -0.00651768 -0.0829216 
111 1 1 31.7251 13.0212 8.38573 0.0643799 -0.12346 0.0307013 
112 1 1 31.2634 12.1854 6.99467 0.0224413 0.0350059 0.0811058 
113 1 1 31.1047 21.3679 7.1564 -0.110975 -0.159859 -0.104395 
114 1 1 31.1722 21.0254 8.08947 0.0857168 -0.00967053 -0.0722172 
115 1 1 31.161 21.4589 6.0982 -0.0383825 0.069499 0.0503816 
116 1 1 30.3716 21.6686 6.63287 0.01948 -0.147587 0.0383176 
117 1 1 31.6979 20.8653 4.42142 -0.109193 -0.0680362 -0.164855 
118 1 1 31.5693 20.4182 3.49556 -0.0820219 -0.0299762 -0.0355148 
119 1 1 30.9575 21.3768 4.92978 -0.216132 0.02524 0.0172723 
120 1 1 31.3865 19.8052 2.69843 -0.25066 -0.0724494 -0.0923554 
121 1 1 31.6767 18.3702 1.9975 -0.106804 0.129867 0.052068 
122 1 1 31.1609 19.2708 2.1835 0.0580141 0.0225194 0.0298823 
123 1 1 31.7793 14.763 2.27023 -0.141542 0.0144165 0.0778591 
124 1 1 31.7686 14.1101 2.68616 -0.2155 -0.00462146 -0.0422049 
125 1 1 31.6634 13.1159 3.67303 0.0669987 -0.0860057 -0.167813 
126 1 1 31.3637 13.5945 2.87201 -0.0931965 0.0177991 -0.10078 
127 1 1 31.2756 12.2327 5.10091 0.0907301 0.0538259 0.0539173 
128 1 1 31.0849 12.435 4.22116 -0.00498215 0.00223876 0.149187 
129 1 1 30.6706 11.7633 5.55737 -0.0216159 -0.0211207 -0.141038 
130 1 1 31.2496 17.7184 1.60333 -0.0714011 -0.0220427 0.266989 
131 1 1 31.7994 15.6165 1.9421 -0.13353 0.059623 -0.0723388 
132 1 1 31.4302 16.7553 1.58994 0.0854417 0.0845888 -0.0877134 
133 1 1 31.1777 20.5288 8.9181 0.0696779 0.044747 0.0797631 
134 1 1 31.204 19.8227 9.65859 -0.0384513 0.117903 -0.190667 
135 1 1 31.0688 17.7788 10.7244 0.0897441 -0.035915 0.074113 
136 1 1 31.1091 19.1113 10.2029 0.046931 -0.0651393 0.103879 
137 1 1 30.7952 18.4765 10.6162 -0.0217742 -0.0433286 -0.0319225 
138 1 1 31.4001 16.4466 10.6788 -0.0927709 0.0690205 -0.0986896 
139 1 1 30.8937 17.145 10.8759 0.051411 -0.00269917 -0.0573349 
140 1 1 31.0942 15.5769 10.6564 -0.0774639 0.0540533 0.00642455 
141 1 1 31.5067 14.7879 10.1689 0.0975476 0.0499458 0.153717 
142 1 1 31.7509 14.224 9.68064 -0.0355213 0.00928477 -0.0416403 
143 1 1 31.4464 13.4664 9.21288 0.0308702 -0.0651513 0.00413697 
144 1 1 30.6437 11.7249 6.52158 -0.0271511 0.00406226 -0.106012 
145 1 1 31.2242 12.47 7.93824 -0.0947226 -0.0253523 -0.00970667 
146 1 1 31.1221 12.7775 8.60032 0.130723 0.0415598 -0.12538 
147 1 1 30.549 11.8612 7.46665 -0.187873 -0.0317872 -0.052908 
148 1 1 30.4034 21.4669 7.58691 0.0451827 -0.00719536 -0.0342606 
149 1 1 30.373 21.057 8.5493 0.0349341 0.117297 -0.0960578 
150 1 1 30.2279 21.6841 5.52953 0.0522768 0.034153 -0.0506425 
151 1 1 29.6686 21.6757 7.19172 0.0867003 -0.0266305 -0.132007 
152 1 1 29.467 21.7987 6.15837 -0.104005 0.110066 0.148492 
153 1 1 30.8543 21.0394 3.95506 -0.0439272 -0.00637154 -0.0916251 
154 1 1 30.7062 20.5146 3.07679 0.00731664 -0.0392164 -0.0335041 
155 1 1 30.1684 21.467 4.53923 -0.0340331 -0.0566948 0.0660561 
156 1 1 30.481 19.8372 2.32805 0.030614 -0.139006 -0.0290987 
157 1 1 30.8128 18.5636 1.6918 0.0449929 -0.0113907 0.136649 
158 1 1 30.4445 19.2418 1.91182 -0.0753297 0.0310693 -0.0195264 
159 1 1 31.2291 15.0149 1.86072 0.138966 -0.126287 -0.0221852 
160 1 1 30.9849 14.1939 2.19507 0.0965881 0.198344 0.201083 
161 1 1 30.6092 13.3896 2.62381 -0.23152 0.154124 0.193794 
162 1 1 30.7743 12.8291 3.30397 0.0455228 0.0994348 -0.0235586 
163 1 1 30.5264 11.8844 4.6939 -0.0250756 -0.0860771 -0.0314525 
164 1 1 30.4149 12.1361 3.98793 0.102802 -0.00968918 -0.160911 
165 1 1 30.004 11.3076 5.96679 0.19053 0.132169 0.124966 
166 1 1 30.1139 11.48 5.18842 0.0691549 -0.0982054 -0.188031 
167 1 1 30.6964 17.2831 1.3441 0.0574971 -0.0909368 -0.0511318 
168 1 1 30.4186 17.9993 1.40022 0.0783588 -0.0525013 -0.0206012 
169 1 1 30.9316 15.6888 1.52435 -0.0781903 -0.0116507 0.12322 
170 1 1 30.4696 16.4776 1.27274 0.0981033 -0.0738751 0.29575 
171 1 1 30.3329 20.4475 9.40919 0.00800729 0.00363152 0.112078 
172 1 1 30.2811 19.7692 10.0467 -0.188677 0.0326575 -0.0327121 
173 1 1 30.4032 17.7751 10.9226 0.27215 0.00718806 -0.0333953 
174 1 1 30.0928 19.0966 10.5124 -0.0625513 -0.050483 -0.0127868 
175 1 1 30.0533 18.3857 10.8232 -0.0715837 0.127218 0.00159641 
176 1 1 30.036 17.0956 11.0774 -0.091134 0.132576 0.0119628 
177 1 1 30.5608 16.3231 10.9606 -0.0386502 -0.18712 -0.012843 
178 1 1 30.18 15.4767 10.8833 -0.0164919 0.0725125 -0.010566 
179 1 1 30.6586 14.718 10.4866 -0.0573918 -0.180993 0.01205 
180 1 1 31.0859 14.0395 9.92201 -0.00725656 -0.0593531 0.0975992 
181 1 1 30.5853 13.4302 9.69311 0.137249 -0.00367196 -0.0340716 
182 1 1 30.5998 12.9338 9.21427 -0.25356 -0.0444334 -0.0297919 
183 1 1 29.8812 11.3117 6.97299 -0.062546 0.0194863 0.119619 
184 1 1 29.3976 10.9248 6.26724 0.11794 0.067828 0.0697217 
185 1 1 30.4085 12.229 8.44612 0.0628201 -0.0677141 -0.0450284 
186 1 1 29.9092 11.5877 7.81164 -0.0192336 0.153511 -0.174377 
187 1 1 29.5975 21.3872 8.10748 0.0457032 -0.069346 0.0186289 
188 1 1 29.5278 20.8884 9.00693 -0.0222271 -0.0333468 -0.216545 
189 1 1 29.4661 21.6923 5.10885 -0.0277728 -0.000809343 -0.144573 
190 1 1 28.7424 21.723 5.48742 0.215852 -0.107383 -0.113059 
191 1 1 29.0107 21.5582 7.63126 0.0494773 -0.000921115 -0.0914004 
192 1 1 28.8848 21.7108 6.94924 0.013772 0.027111 0.0772298 
193 1 1 28.5645 21.7387 6.21721 -0.0353872 -0.0199315 -0.102684 
194 1 1 29.9515 21.0509 3.57267 -0.0975225 -0.172813 0.0383856 
195 1 1 29.7627 20.4701 2.76418 -0.00807437 0.0717221 -0.0857079 
196 1 1 29.2609 21.3727 4.11141 0.0146455 -0.0532609 -0.147362 
197 1 1 29.5806 19.6353 2.02251 -0.0367559 0.106056 -0.173912 
198 1 1 29.8964 18.7699 1.57165 -0.10368 0.147638 0.089302 
199 1 1 30.5438 14.8948 1.67068 -0.224935 0.0110498 0.103209 
200 1 1 30.1163 14.3718 1.78532 0.134487 -0.0613489 -0.0325259 
201 1 1 30.14 13.6603 2.19643 -0.0313383 -0.0431552 0.00774552 
202 1 1 29.9827 12.9299 2.68009 -0.0146831 -0.0986142 0.0088369 
203 1 1 29.8138 12.1838 3.35393 0.221544 -0.0071494 -0.0762452 
204 1 1 29.6752 11.5254 4.26612 -0.0288584 0.0642634 -0.00865899 
205 1 1 29.3051 10.9547 5.26208 0.169131 0.0871492 0.0876702 
206 1 1 29.9503 17.2553 1.19184 0.00714684 0.0712079 -0.119257 
207 1 1 29.4444 18.0361 1.28989 0.113543 -0.0513607 -0.0148688 
208 1 1 30.0566 15.6676 1.31715 -0.0598822 0.0110892 -0.0871368 
209 1 1 29.5425 16.4843 1.14831 -0.0926875 0.0123333 0.14504 
210 1 1 29.4495 20.2274 9.77259 0.0745444 0.0119823 0.00322503 
211 1 1 29.3029 19.5797 10.2891 0.00307829 0.137482 -0.0703709 
212 1 1 29.5597 17.8654 11.0151 -0.0242998 0.015855 -0.190545 
213 1 1 29.1342 18.7286 10.7423 0.0680819 -0.00540902 0.125309 
214 1 1 29.1479 17.1148 11.1205 -0.156163 0.00260883 0.109131 
215 1 1 29.6703 16.2865 11.0974 -0.0231595 -0.0669276 -0.0974808 
216 1 1 28.765 10.5252 6.0571 0.169634 0.0498174 -0.0793836 
217 1 1 28.9937 10.75 6.95958 0.0360059 -0.0589536 0.163831 
218 1 1 29.2205 15.4978 11.0259 -0.0952216 -0.0586936 -0.0648767 
219 1 1 29.6448 14.7248 10.7531 0.149928 -0.0869448 -0.150734 
220 1 1 30.089 13.9224 10.2548 -0.0737241 -0.150002 0.0255208 
221 1 1 29.8991 13.0651 9.74849 -0.315429 0.234384 0.138281 
222 1 1 29.7535 12.401 9.21336 0.051232 -0.0631839 0.0284386 
223 1 1 29.2862 11.1634 7.73283 -0.0322333 -0.0178112 0.166813 
224 1 1 29.4627 11.6779 8.51541 -0.165794 -0.12705 0.0694542 
225 1 1 28.6607 20.5306 9.39026 -0.140287 0.214382 0.0607305 
226 1 1 28.6217 21.1705 8.45106 0.175689 -0.0962733 0.112225 
227 1 1 28.5456 21.495 4.6069 0.154919 0.0148637 0.0691404 
228 1 1 28.062 21.538 5.17369 -0.0940956 0.181055 0.106226 
229 1 1 27.9757 21.6026 5.86973 0.0255659 -0.006258 -0.000802845 
230 1 1 28.2193 21.4709 7.51656 0.000769888 0.0969728 -0.0154985 
231 1 1 28.0676 21.6034 6.67799 0.0217694 0.159456 0.00972849 
232 1 1 29.0247 20.8991 3.28837 0.0768624 -0.00909734 0.197021 
233 1 1 28.8009 20.3011 2.60646 -0.068888 -0.0788057 -0.105971 
234 1 1 28.3539 21.0933 3.76976 -0.0136422 0.172644 -0.0285527 
235 1 1 28.4616 19.6159 2.09764 -0.0566348 -0.169034 0.0150893 
236 1 1 28.9969 18.8745 1.59772 0.0424559 0.0949263 -0.0758848 
237 1 1 29.698 14.8919 1.47112 -0.0830936 0.0599671 0.11078 
238 1 1 29.2753 14.0253 1.70095 -0.00291923 0.0807972 -0.0545297 
239 1 1 29.2933 13.1283 2.19674 0.0341689 0.158448 0.110557 
240 1 1 29.1792 12.3092 2.78525 0.0335928 -0.124799 -0.00823534 
241 1 1 29.0085 11.5823 3.47606 -0.0399632 0.0824308 -0.0600911 
242 1 1 28.7674 10.9424 4.28977 -0.0627109 0.0401157 0.0507788 
243 1 1 28.4259 10.4268 5.14833 -0.03317 -0.0338841 0.0211364 
244 1 1 29.0201 17.3139 1.17118 0.0453945 0.138784 0.0131151 
245 1 1 28.5096 18.1229 1.38443 -0.0372301 0.0259323 0.0899415 
246 1 1 29.0937 15.6256 1.20834 -0.119108 -0.104294 -0.0451206 
247 1 1 28.6072 16.4576 1.13463 0.308454 0.0146229 -0.0203468 
248 1 1 28.5628 19.8756 9.99613 -0.131262 0.0422349 -0.130305 
249 1 1 28.5192 19.3058 10.3795 -0.0607578 -0.0543177 0.164466 
250 1 1 28.6337 17.9318 10.9523 0.0687998 0.132452 -0.000231165 
251 1 1 28.1468 18.7052 10.598 -0.142372 -0.065969 0.158342 
252 1 1 28.1794 17.081 11.0595 0.160535 -0.0283439 -0.0413289 
253 1 1 28.7201 16.2832 11.1332 0.0961657 0.113471 0.14925 
254 1 1 27.9511 10.0149 6.00365 0.00293623 0.0429215 0.0824392 
255 1 1 28.2447 10.2615 6.86971 -0.0661846 -0.10141 0.0633921 
256 1 1 28.4694 10.6524 7.74126 -0.0305133 0.209548 0.148676 
257 1 1 28.3325 15.4769 11.1001 0.0546086 0.135982 0.0436309 
258 1 1 28.7454 14.717 10.9219 0.239017 0.0239254 0.016766 
259 1 1 29.1542 14.1411 10.6494 -0.0100845 -0.0189052 0.0535585 
260 1 1 29.0835 13.3471 10.289 -0.100218 0.164847 0.0461069 
261 1 1 28.9884 12.6135 9.84518 0.0226057 -0.00297807 -0.0106448 
262 1 1 28.9068 11.8676 9.21276 0.00722797 -0.00373429 0.173314 
263 1 1 28.687 11.2 8.53152 -0.0632043 0.135709 0.137841 
264 1 1 28.0159 20.1542 9.59312 0.013281 0.0928215 -0.0583321 
265 1 1 27.8352 20.6184 8.9843 0.0381024 -0.015864 0.0327824 
266 1 1 27.6192 21.0582 8.10337 0.122809 0.0471939 0.0382431 
267 1 1 27.5943 21.1435 4.37864 0.0123125 -0.0328628 -0.138692 
268 1 1 27.3447 21.317 5.35348 0.149944 0.0947744 -0.0863392 
269 1 1 27.3383 21.379 6.24892 -0.13833 -0.041114 0.0947789 
270 1 1 27.4233 21.295 7.18255 -0.218909 -0.147411 -0.0375771 
271 1 1 28.1122 20.5885 3.11352 0.0437751 -0.0779535 0.017379 
272 1 1 28.0635 20.0799 2.58423 -0.0790498 0.201842 0.00589599 
273 1 1 27.6185 20.7333 3.57509 -0.0469034 -0.0022901 0.011157 
274 1 1 27.6063 19.5614 2.34509 -0.0278678 0.0693683 -0.103055 
275 1 1 28.0333 18.8814 1.78148 0.136513 0.137623 -0.166522 
276 1 1 28.6889 14.8124 1.31483 0.125205 0.0437805 -0.0287157 
277 1 1 28.2915 14.1531 1.42533 -0.0337656 -0.0240149 -0.175179 
278 1 1 28.3872 13.383 1.73912 -0.0555786 -0.0118144 0.091257 
279 1 1 28.4471 12.5962 2.19671 0.0546051 0.0300877 -0.0316549 
280 1 1 28.362 11.7935 2.7857 0.0150175 -0.19982 0.088063 
281 1 1 28.2165 11.0844 3.47491 -0.133345 -0.067527 -0.171691 
282 1 1 27.9666 10.4426 4.28068 -0.155284 -0.159804 0.224893 
283 1 1 27.5758 9.89569 5.13385 -0.0611855 0.216195 0.107655 
284 1 1 28.1151 17.2479 1.24131 -0.0231084 0.013614 -0.0712441 
285 1 1 27.6011 17.9642 1.51407 -0.0268032 -0.12813 0.061734 
286 1 1 28.19 15.6173 1.14816 -0.0211141 0.0797697 -0.0570922 
287 1 1 27.7124 16.456 1.16648 -0.141431 0.132054 0.0822099 
288 1 1 27.7066 19.4052 10.0723 -0.0566918 0.0316389 -0.107096 
289 1 1 27.7796 17.9426 10.7976 0.0153142 0.151074 -0.0683705 
290 1 1 27.491 18.5441 10.4833 0.04072 -0.179632 -0.056084 
291 1 1 27.1122 9.48705 5.9935 0.0335404 0.0931585 -0.136299 
292 1 1 27.2707 17.0663 10.9531 0.0603886 -0.00912258 0.0685839 
293 1 1 27.7808 16.2697 11.1189 -0.0275641 -0.0311357 -0.100618 
294 1 1 27.4206 9.74006 6.84848 -0.0493625 -0.0500698 -0.0535006 
295 1 1 27.6738 10.1402 7.71503 0.123776 0.0382847 -0.00404993 
296 1 1 27.8888 10.669 8.48894 -0.0181927 -0.197466 0.209359 
297 1 1 27.4306 15.3932 11.1307 -0.0781643 -0.11905 -0.0845651 
298 1 1 28.0036 14.8339 11.0435 -0.142805 -0.0804471 -0.0789762 
299 1 1 28.2012 13.8691 10.7715 0.224543 -0.105116 0.079122 
300 1 1 28.1707 12.9165 10.3689 0.112141 0.115992 0.256178 
301 1 1 28.17 12.1004 9.84683 -0.0027841 0.175258 -0.0248201 
302 1 1 28.0602 11.3349 9.21372 -0.0425457 0.112318 -0.195784 
303 1 1 26.8154 20.8188 7.69746 0.033295 0.0411613 0.00148907 
304 1 1 27.3282 20.0051 9.39518 -0.0591223 0.0612322 -0.0248548 
305 1 1 27.0275 20.4827 8.59332 -0.0148589 0.0142127 0.0533486 
306 1 1 26.9663 20.5783 3.88183 0.216167 -0.0439077 -0.1384 
307 1 1 26.7783 20.8773 4.79561 -0.128304 -0.0313501 0.129777 
308 1 1 26.689 21.0198 5.76142 0.153441 -0.015072 -0.114959 
309 1 1 26.7017 20.9998 6.74123 -0.170401 0.0732407 -0.155868 
310 1 1 27.2458 20.1341 3.05496 -0.0527714 0.144372 -0.0816837 
311 1 1 26.8399 19.3751 2.57544 0.122868 -0.0199795 -0.0602713 
312 1 1 27.0691 18.7136 2.01269 -0.0102456 0.0732002 -0.00530674 
313 1 1 27.7002 14.7727 1.20463 0.0572423 0.0944238 0.0406056 
314 1 1 27.6126 13.8187 1.39808 0.111586 -0.0976635 0.0258718 
315 1 1 27.6258 12.8829 1.74813 -0.118301 0.0596652 0.0732182 
316 1 1 27.6013 12.0617 2.19692 -0.0209798 -0.0917857 0.100746 
317 1 1 27.5163 11.2602 2.78456 -0.0322711 0.145135 0.0251107 
318 1 1 27.371 10.5519 3.47466 0.0528258 0.0102577 -0.128992 
319 1 1 27.0988 9.88647 4.3044 -0.143767 -0.0365016 -0.13202 
320 1 1 26.7236 9.35944 5.13645 0.0171525 0.259888 -0.123963 
321 1 1 27.2049 17.157 1.34613 0.0223134 0.0164953 0.020623 
322 1 1 26.8631 17.7762 1.61863 0.125706 -0.168593 -0.218474 
323 1 1 27.2489 15.6778 1.13545 -0.0120106 -0.164778 0.112244 
324 1 1 26.9907 16.4371 1.22332 0.0863023 0.155856 0.111689 
325 1 1 26.8177 19.4117 9.64501 0.027983 -0.0779786 0.0198497 
326 1 1 26.86 18.8722 10.072 0.0916567 0.0901924 0.0859742 
327 1 1 26.8145 17.9364 10.5675 0.0867012 0.219996 -0.0559974 
328 1 1 26.5057 16.992 10.844 0.108053 0.0755246 -0.0292127 
329 1 1 26.2768 8.96226 5.97872 0.161908 0.0548717 0.0924108 
330 1 1 26.5777 9.20801 6.84496 -0.0821846 -0.118326 0.122185 
331 1 1 26.8081 16.1905 11.0628 0.0949214 0.00393535 -0.035412 
332 1 1 26.827 9.6078 7.71385 0.017445 -0.261427 -0.0600439 
333 1 1 27.0429 10.1356 8.48826 0.00807916 0.117027 0.0438192 
334 1 1 27.2146 10.8016 9.21433 -0.00773802 0.0776206 0.160581 
335 1 1 26.6635 15.266 11.1327 0.221744 0.0477325 -0.0326657 
336 1 1 27.1468 14.3826 11.0583 -0.119169 -0.132296 0.0538674 
337 1 1 27.2748 13.314 10.7822 -0.0328815 -0.0706702 0.130652 
338 1 1 27.3799 12.4166 10.3684 -0.163919 -0.0180665 0.10548 
339 1 1 27.3233 11.5669 9.84663 -0.0115104 -0.0537735 0.0814784 
340 1 1 26.4847 20.1398 3.66801 -0.0602111 0.0778751 0.0466615 
341 1 1 26.0617 20.512 7.16878 -0.134126 0.0693974 0.0671037 
342 1 1 26.163 20.2532 8.04907 -0.0147397 0.137968 -0.162898 
343 1 1 26.3844 19.8044 8.96478 -0.0501866 0.0755521 -0.0830753 
344 1 1 26.2536 20.3647 4.33083 0.112772 -0.0519214 0.0312982 
345 1 1 26.014 20.5215 5.27399 -0.00587064 0.0666864 -0.166689 
346 1 1 26.0005 20.5999 6.23827 -0.0257494 -0.0774295 -0.0347315 
347 1 1 25.3771 20.1689 6.71188 -0.173842 -0.15814 0.141552 
348 1 1 26.3986 19.6015 3.05473 0.00432565 -0.0591061 -0.0554468 
349 1 1 26.2143 18.9136 2.51953 -0.059319 0.102665 -0.156202 
350 1 1 26.1152 18.055 1.97957 0.154853 0.142423 0.00552404 
351 1 1 26.8036 15.0418 1.13519 0.0958461 -0.0607658 0.10098 
352 1 1 26.8043 14.224 1.20265 0.0841947 0.0617911 -0.0122898 
353 1 1 26.8019 13.2986 1.40021 0.0373915 -0.0538377 0.0617587 
354 1 1 26.7921 12.4093 1.72403 -0.00325931 -0.0390804 -0.109317 
355 1 1 26.7561 11.5293 2.19469 0.0847909 0.127091 -0.0344967 
356 1 1 26.6711 10.727 2.7846 0.0759067 0.00514265 -0.0231327 
357 1 1 26.5241 10.0187 3.47479 -0.0492564 0.128182 0.0418891 
358 1 1 26.2523 9.35565 4.30118 0.0650378 -0.125878 0.059257 
359 1 1 25.8583 8.81688 5.1317 0.151985 -0.0609424 -0.149408 
360 1 1 26.2069 17.0338 1.49691 0.0126487 -0.00959445 -0.230834 
361 1 1 26.2147 15.8612 1.21007 -0.0400886 0.0145064 -0.0754235 
362 1 1 26.1324 19.0461 9.5879 0.000665772 0.070267 -0.206835 
363 1 1 26.0126 18.3393 10.0721 -0.0620016 0.0552922 0.0320525 
364 1 1 25.8522 17.4118 10.5307 0.0461828 -0.048945 0.00303294 
365 1 1 25.9097 16.5248 10.871 0.0958323 -0.00779827 0.150575 
366 1 1 25.4149 8.41904 6.00558 0.0634412 0.0500143 -0.0440738 
367 1 1 25.7299 8.67323 6.83252 0.148247 -0.0180909 -0.00635618 
368 1 1 25.9783 9.07148 7.7085 0.0147915 0.0547427 -0.0281827 
369 1 1 25.9269 15.6212 11.0662 0.051378 -0.000689863 -0.0381504 
370 1 1 26.1966 9.60302 8.48785 0.216753 -0.173799 -0.157497 
371 1 1 26.3681 10.2684 9.21294 0.0813137 -0.0224372 -0.100462 
372 1 1 26.4766 11.0338 9.84644 -0.0773079 0.155142 0.0679535 
373 1 1 26.1428 14.6904 11.1346 -0.100942 -0.0137103 -0.103255 
374 1 1 26.3409 13.74 11.037 0.0513128 -0.0796895 0.0404275 
375 1 1 26.4808 12.8032 10.7779 -0.0375015 -0.0644487 -0.0125583 
376 1 1 26.5325 11.8844 10.3678 0.00364351 0.224616 -0.0232743 
377 1 1 25.681 19.7337 3.8233 -0.023374 0.131583 0.0374734 
378 1 1 25.4252 19.9873 7.57631 0.0811935 -0.049389 0.085555 
379 1 1 25.6043 19.7783 8.28163 -0.0139172 -0.0248758 0.00389057 
380 1 1 25.3865 19.2155 8.91584 0.0860711 0.0866887 0.0449639 
381 1 1 25.4119 20.0178 4.80257 -0.157635 0.186521 0.159072 
382 1 1 25.3304 20.161 5.747 0.015594 0.0584105 -0.0228896 
383 1 1 24.6775 19.7642 6.30206 0.0164054 0.0137384 0.201912 
384 1 1 24.882 19.7889 7.08147 0.00759676 0.0563977 -0.000511925 
385 1 1 25.553 19.0682 3.05459 -0.0589935 0.0133058 0.0391419 
386 1 1 25.4145 18.2852 2.42396 0.0406263 0.00822941 -0.0367036 
387 1 1 25.3341 17.416 1.89932 -0.096664 -0.140284 -0.0386994 
388 1 1 26.059 14.8231 1.13451 -0.0873047 -0.0973639 -0.168999 
389 1 1 25.9996 13.8255 1.18905 -0.0777155 0.0627319 0.0957049 
390 1 1 25.9874 12.8171 1.39138 -0.00938637 -0.0125302 -0.0745823 
391 1 1 25.946 11.8761 1.72292 -0.060309 -0.00850018 -0.079536 
392 1 1 25.9096 10.9958 2.19532 -0.00361061 0.122916 0.22066 
393 1 1 25.8241 10.1942 2.78447 0.153386 -0.0787316 0.134353 
394 1 1 25.6786 9.48587 3.47475 0.0601988 -0.08321 0.0788769 
395 1 1 25.3936 8.81654 4.29575 0.17101 0.00988225 0.056942 
396 1 1 25.0189 8.29008 5.12107 -0.281533 -0.186126 -0.146194 
397 1 1 25.307 16.4368 1.48666 -0.143618 0.0862701 -0.12175 
398 1 1 25.2871 15.4104 1.23209 -0.0146092 -0.0214863 -0.15664 
399 1 1 25.2254 18.5891 9.48445 0.11072 0.0014245 0.00122832 
400 1 1 25.1679 17.805 10.0733 0.137681 -0.0124848 0.0552877 
401 1 1 25.0715 16.9409 10.5216 -0.0671218 -0.0449792 -0.0388788 
402 1 1 24.585 7.89672 5.95308 -0.0967927 -0.0909482 -0.00621444 
403 1 1 25.0907 16.0183 10.8703 -0.00937169 -0.0534383 -0.0355717 
404 1 1 24.872 8.13506 6.84897 0.16487 0.0864241 -0.125788 
405 1 1 25.1281 8.52972 7.69242 -0.157455 0.051924 0.120063 
406 1 1 25.3494 9.07053 8.48842 -0.138481 0.189861 -0.00373982 
407 1 1 25.2186 15.0678 11.0817 0.00536716 0.0973246 0.0531653 
408 1 1 25.5218 9.7355 9.21323 0.0402256 -0.035323 -0.114821 
409 1 1 25.6301 10.5011 9.84542 -0.0611745 -0.0333827 -0.0196478 
410 1 1 25.6857 11.3516 10.3681 -0.0258203 0.129505 -0.0668447 
411 1 1 25.3584 14.1332 11.1339 0.0391342 0.111041 -0.0438071 
412 1 1 25.5001 13.1944 11.0333 0.0309388 0.171147 -0.0940151 
413 1 1 25.5961 12.2745 10.7872 0.0190467 -0.100057 0.124113 
414 1 1 24.888 19.559 4.45739 -0.10436 0.201124 -0.133341 
415 1 1 24.7761 19.1191 3.75291 -0.0129869 -0.162101 0.0798423 
416 1 1 24.7343 19.3737 8.00357 0.0694143 0.128294 0.02252 
417 1 1 24.4965 18.7487 8.79369 0.0406262 0.0337119 0.053368 
418 1 1 24.6269 19.6527 5.29533 0.0146093 -0.111636 0.0771619 
419 1 1 24.07 19.3828 6.00152 -0.0122793 0.0658142 0.0523566 
420 1 1 24.0579 19.2862 7.008 -0.0860913 0.0440229 0.0937562 
421 1 1 24.7067 18.5354 3.05512 0.0381139 0.0753816 -0.0169795 
422 1 1 24.5982 17.7686 2.42209 -0.156553 -0.139843 0.115872 
423 1 1 24.5429 16.9186 1.90041 0.12326 -0.0436405 -0.0180596 
424 1 1 25.2173 14.3544 1.13604 0.0631723 0.0769835 -0.0769333 
425 1 1 25.1642 13.3225 1.18512 0.0434952 -0.0405736 0.00154334 
426 1 1 25.1412 12.2844 1.39043 0.0690729 -0.0364468 -0.0334986 
427 1 1 25.1003 11.343 1.72433 -0.0788493 -0.0139638 -0.00569577 
428 1 1 25.0634 10.4628 2.19585 -0.0876936 -0.00901094 -0.0237367 
429 1 1 24.1894 7.76908 5.1125 0.18696 0.0545108 -0.0190729 
430 1 1 24.978 9.66149 2.7848 -0.170381 0.00151999 -0.0729959 
431 1 1 24.8318 8.9532 3.47475 -0.00133027 -0.157726 -0.126428 
432 1 1 24.5544 8.28996 4.29162 0.0220775 0.095079 0.078057 
433 1 1 24.5025 15.9414 1.49024 0.0823878 -0.0906465 0.120568 
434 1 1 24.4315 14.8879 1.23522 -0.0626118 0.169062 0.0142115 
435 1 1 24.4072 18.0746 9.48415 -0.0675333 0.017179 -0.137656 
436 1 1 24.3214 17.2727 10.0731 -0.0879489 -0.0363061 -0.0229357 
437 1 1 24.2849 16.3932 10.5462 0.0398084 -0.00878726 -0.0372898 
438 1 1 23.7276 7.35668 5.93838 0.0299264 0.0281208 -0.0164904 
439 1 1 24.0333 7.60325 6.83115 0.00697439 -0.0213377 0.0194457 
440 1 1 24.3044 15.4927 10.8794 -0.148687 0.0626118 0.111382 
441 1 1 24.2806 8.0008 7.70533 0.0870593 0.060158 -0.141821 
442 1 1 24.5028 8.53797 8.48847 0.154428 -0.100155 0.0893596 
443 1 1 24.6755 9.20331 9.2133 -0.187453 -0.0689634 0.0181724 
444 1 1 24.4049 14.5312 11.0848 0.00743437 0.0866831 0.0605373 
445 1 1 24.7842 9.96811 9.84611 0.111236 -0.0682087 0.00152575 
446 1 1 24.8401 10.8189 10.3672 -0.166277 -0.0482351 0.00477714 
447 1 1 24.7521 11.7399 10.7855 0.0324231 0.0193576 0.0506759 
448 1 1 24.5251 13.5977 11.1325 0.0464012 -0.173586 -0.0385771 
449 1 1 24.6462 12.6602 11.033 0.049875 0.0534426 0.0397767 
450 1 1 24.2364 19.1801 4.53475 0.0963912 0.0239867 -0.093158 
451 1 1 24.0101 18.6255 3.73616 0.0634469 0.121778 -0.0363648 
452 1 1 23.8149 18.8068 7.97947 0.212151 0.134436 0.311449 
453 1 1 23.7063 18.2503 8.79437 -0.0355084 0.032303 0.0319611 
454 1 1 23.7382 19.0949 5.30909 0.0652387 0.111728 -0.0479151 
455 1 1 23.4365 18.9859 6.21271 0.0124782 0.0618127 0.0153526 
456 1 1 23.2018 18.7233 7.12148 0.0959542 0.0645705 -0.119896 
457 1 1 23.861 18.0013 3.05494 0.0804708 -0.104998 0.126263 
458 1 1 23.7519 17.2346 2.42201 0.0312951 0.0542311 0.0337725 
459 1 1 23.6968 16.3858 1.90029 -0.079054 0.0392446 0.0037924 
460 1 1 24.3744 13.8345 1.13599 -0.111714 -0.16138 0.0493502 
461 1 1 24.3192 12.7944 1.18476 0.0968463 0.0688526 0.0469269 
462 1 1 24.2901 11.7542 1.38907 -0.0325983 0.00746278 -0.0782278 
463 1 1 24.2546 10.81 1.72442 -0.0754438 0.0372951 0.164509 
464 1 1 24.2173 9.93058 2.19522 0.114786 0.0318908 0.00969927 
465 1 1 23.3349 7.22976 5.11565 0.0198476 0.00972457 -0.0394512 
466 1 1 23.7058 7.75404 4.29653 0.146609 -0.104016 -0.241471 
467 1 1 24.1307 9.12863 2.78516 -0.110299 0.1018 0.0955949 
468 1 1 23.9854 8.42128 3.47451 -0.0522691 -0.100967 0.012441 
469 1 1 23.6432 15.3711 1.48106 -0.0572593 -0.205309 -0.00710171 
470 1 1 23.5819 14.3485 1.23469 0.113214 -0.0449692 0.244328 
471 1 1 23.561 17.5412 9.48481 0.0237091 0.0310321 0.0601303 
472 1 1 23.4748 16.74 10.0751 -0.0516428 -0.140847 -0.0754505 
473 1 1 23.4377 15.8611 10.5473 0.189134 0.00487736 -0.110891 
474 1 1 22.8826 6.82406 5.9523 -0.0527561 -0.163932 0.0044454 