ITEM: TIMESTEP
100000000
ITEM: NUMBER OF ATOMS
44148
ITEM: BOX BOUNDS pp pp pp
0 62
0 62
0 62
ITEM: ATOMS id mol type x y z vx vy vz 
1 1 3 14.4053 54.9499 7.29253 -0.0581801 0.0158482 0.0598168
2 1 1 14.3663 55.7385 6.84502 -0.163355 -0.0991666 -0.15538
3 1 1 14.6245 54.7974 6.46707 -0.043741 -0.024396 0.00164956
4 1 1 14.6618 55.5593 6.02009 0.115136 -0.0141254 0.206726
5 1 3 14.7715 54.071 6.96568 -0.0604276 0.0734041 0.0217284
6 1 1 14.9904 54.6579 5.63869 0.0712088 0.147436 0.101363
7 1 1 15.1474 55.4445 5.05022 -0.187116 0.178489 0.0889763
8 1 1 14.3066 55.7059 7.8485 0.0603682 -0.135185 0.0489417
9 1 3 14.3691 56.5843 7.38276 0.0600865 -0.0217042 0.10449
10 1 1 14.5145 56.5102 6.39543 -0.0417195 0.0337976 0.00658066
11 1 1 14.8094 56.3442 5.56975 0.0694268 -0.146123 -0.0396974
12 1 1 15.3215 56.4419 4.84472 0.116084 0.0675205 -0.063452
13 1 3 14.4513 54.8327 8.24156 0.012369 -0.0345577 0.0186335
14 1 1 14.6255 54.3296 7.7339 -0.00446526 0.00666656 0.171748
15 1 1 14.9342 53.6493 7.77423 0.00565259 0.215715 0.0121051
16 1 1 15.087 53.9646 6.16694 0.128567 0.0399125 0.0430844
17 1 3 15.2045 53.2517 6.86501 -0.144999 0.162949 -0.0586542
18 1 1 15.6636 55.9523 4.3546 0.0115032 0.0824398 -0.0366505
19 1 1 15.789 55.1339 4.25418 0.197047 0.143007 0.0643058
20 1 1 15.5044 54.534 4.79333 0.0218583 -0.0450283 0.0579433
21 1 3 15.5423 53.8229 5.24116 -0.0690527 0.0027101 -0.0629866
22 1 1 14.544 54.8821 8.87215 -0.0798353 0.085368 -0.15433
23 1 1 14.391 55.8868 8.64982 0.0807098 -0.148316 0.0725311
24 1 1 14.4113 56.6859 8.27905 -0.00837919 -0.0332876 -0.00858608
25 1 3 14.6282 57.3751 7.97722 -0.0294219 -0.000200719 -0.0143229
26 1 1 14.6097 57.4259 6.96577 0.116059 -0.0410194 -0.00459701
27 1 1 14.868 57.3788 6.08404 -0.104966 -0.00177691 0.0396595
28 1 1 15.9175 56.6756 4.17388 -0.0620164 -0.113608 0.00378483
29 1 3 15.2301 57.3116 5.29662 0.0981102 -0.0596983 0.115284
30 1 1 15.7657 57.2756 4.62044 -0.17518 -0.0973528 0.225899
31 1 1 14.7795 53.9416 8.65717 0.0908019 -0.110148 0.297123
32 1 1 15.1274 53.1628 8.34511 0.051579 0.0307312 0.100982
33 1 3 15.4138 52.8175 7.57513 0.0032434 0.0039953 0.0768669
34 1 1 15.6073 53.0944 5.94181 -0.00683581 0.0488287 -0.0698068
35 1 1 15.8279 52.5489 6.80088 -0.0467557 0.00715914 -0.0471433
36 1 1 16.2098 55.8303 3.83588 0.0971829 0.0208823 -0.140687
37 1 3 16.4845 54.971 3.67726 -0.00872684 -0.049405 -0.135965
38 1 1 16.5036 56.5625 3.62449 -0.0583653 0.0243369 0.0889327
39 1 1 16.2099 54.2948 4.12187 -0.10609 0.0206793 0.0249255
40 1 1 16.1807 53.6883 4.49299 -0.104459 -0.304993 0.0417574
41 1 3 16.1977 53.004 5.15528 0.0494857 0.0648475 0.0350979
42 1 1 14.7892 54.4724 9.50192 -0.10491 -0.0454501 -0.0611733
43 1 1 14.7501 55.3323 9.79102 -0.042012 0.0346464 -0.146264
44 1 1 14.6097 55.9749 9.38752 0.0154632 0.190307 -0.0650787
45 1 3 14.5615 56.6695 9.07198 -0.0177914 0.11981 0.0277752
46 1 1 14.7496 57.3465 8.94729 -0.0684375 0.0644204 -0.0199508
47 1 1 15.0051 58.0676 8.67834 -0.0421204 0.0643162 0.153371
48 1 1 14.924 58.1129 7.64017 -0.0125949 0.0187628 0.0926201
49 1 3 15.0512 58.203 6.63708 0.131766 0.137419 -0.0366288
50 1 1 15.3893 58.1155 5.80427 0.0512291 0.0524051 -0.0705901
51 1 1 16.4196 57.407 4.0205 0.0562749 -0.139703 -0.0838933
52 1 1 15.7872 58.1333 5.12435 -0.00333516 -0.213394 0.0398221
53 1 3 16.1483 57.8283 4.48026 0.00354346 0.0577728 0.0917373
54 1 1 15.1023 53.7511 9.53908 -0.106044 0.0463748 0.0286809
55 1 1 15.3311 54.1615 10.3809 -0.131391 0.0129168 0.118425
56 1 1 15.2923 53.1863 9.06081 0.0235514 0.0550021 0.067422
57 1 3 15.5715 52.6179 8.46951 -0.078446 -0.0263913 -0.0686391
58 1 1 15.7155 52.9149 9.77611 -0.0745763 -0.0402762 0.0730394
59 1 1 16.0713 52.1732 7.62765 0.0226202 -0.0390302 -0.159585
60 1 1 16.2981 52.368 5.96164 0.126075 0.0577734 0.112449
61 1 3 16.4951 51.9161 6.86628 0.0867614 -0.148699 -0.013873
62 1 1 16.8093 54.422 3.6773 -0.0295174 -0.0629686 0.127463
63 1 1 16.8544 55.7766 3.32854 0.0380269 -0.00912211 0.131042
64 1 1 17.2638 54.9235 3.28919 -0.217322 -0.274975 0.0629588
65 1 3 17.008 57.367 3.57765 0.214931 -0.00527528 0.113538
66 1 1 17.2649 56.5482 3.19016 0.0918649 0.0227859 0.116335
67 1 1 16.9143 53.7488 3.85884 -0.0298698 0.112328 0.101942
68 1 1 16.8607 53.0109 4.46178 0.0482114 -0.0604114 0.00323695
69 1 3 16.8696 52.3677 5.29118 0.0184962 -0.00424987 -0.111838
70 1 1 15.0735 54.9736 10.2622 0.100623 -0.00746815 0.0550071
71 1 1 15.0496 55.8324 10.2696 0.153071 -0.0999845 -0.00888025
72 1 1 15.0309 56.8461 9.89975 0.14336 -0.183535 -0.11658
73 1 3 15.2154 57.8381 9.60583 -0.0421636 0.112486 -0.0758785
74 1 1 15.4563 58.579 9.23714 -0.00408298 -0.161024 -0.0378161
75 1 1 15.2992 58.7952 8.2891 -0.127952 0.106432 0.0503821
76 1 1 15.3791 58.8995 7.33979 0.0239265 0.0342529 0.0807207
77 1 3 15.6474 58.892 6.35016 -0.0263958 0.0253092 -0.118549
78 1 1 16.0411 58.8682 5.54949 0.0653639 -0.0200186 -0.119844
79 1 1 16.7794 58.0982 4.04222 -0.0408626 0.0772487 0.038078
80 1 1 16.4805 58.6679 4.68569 0.0120936 -0.0574344 -0.0493928
81 1 3 17.5194 58.0652 3.58588 0.0348946 0.0507423 0.0779896
82 1 1 15.7744 54.7295 11.0401 -0.11499 0.0105676 0.0253247
83 1 1 15.7599 53.3901 10.3651 0.0741054 0.0738705 -0.0124868
84 1 1 15.9342 53.958 10.8955 -0.0562831 0.0652163 -0.0524873
85 1 3 15.9395 52.5404 9.33996 0.00482819 -0.0308855 0.121531
86 1 1 16.3329 52.0428 8.49548 0.0431334 0.103677 -0.0882038
87 1 1 16.318 52.5965 10.0837 0.0983921 0.00822418 0.0620817
88 1 1 16.8574 51.6209 7.80972 -0.0766516 -0.0273903 0.0387688
89 1 3 17.1371 51.7177 6.07076 0.157452 -0.0321764 -0.0774754
90 1 1 17.2765 51.3839 7.08666 0.0681227 0.120143 -0.0639566
91 1 1 17.6188 53.9795 3.46006 -0.102681 -0.0565779 -0.00740141
92 1 1 17.6741 55.671 2.99579 -0.028092 -0.0855442 0.0119033
93 1 3 18.1208 54.8159 3.02262 0.0158501 0.13566 -0.107919
94 1 1 17.8235 57.2171 3.17007 0.0863657 0.0189335 -0.0317719
95 1 1 18.1483 56.3413 2.8741 0.0149425 0.00771763 -0.0339073
96 1 1 17.7316 53.0621 3.97257 -0.0770092 0.118304 0.0269521
97 1 3 17.6062 52.3681 4.61789 -0.048205 0.0166945 -0.0132284
98 1 1 17.7453 51.7304 5.44305 -0.0337527 0.175629 0.0776813
99 1 1 15.5451 55.5594 10.9651 -0.0862542 -0.120055 -0.12991
100 1 1 15.5964 56.5403 10.8973 0.167092 0.0979887 0.161243
101 1 3 15.6041 57.489 10.569 0.0147311 -0.0509585 -0.0216844
102 1 1 15.8315 58.3982 10.1602 -0.136967 0.0235607 0.230886
103 1 1 15.7196 59.233 8.81444 -0.147242 0.273425 -0.0761208
104 1 1 15.987 59.1835 9.48157 -0.000140531 -0.131682 0.189495
105 1 3 15.9004 59.5997 7.88743 -0.0321593 0.209556 0.104503
106 1 1 16.0016 59.534 6.79441 -0.0683832 -0.012349 -0.02461
107 1 1 16.3518 59.5019 5.97374 0.0105213 -0.0429506 0.123562
108 1 1 16.6317 59.3726 5.36371 -0.128155 0.010334 0.134674
109 1 3 18.3886 57.9682 3.23709 -0.0049316 -0.0421277 -0.0703383
110 1 1 17.3 58.8538 4.14948 -0.0571683 -0.0177819 0.15269
111 1 1 17.2293 59.4288 4.80896 -0.0114896 -0.0963743 0.117609
112 1 1 18.1683 58.7903 3.69491 -0.127971 -0.0912563 0.0135907
113 1 3 16.4402 54.257 11.4446 0.207946 0.088014 -0.0811924
114 1 1 16.2158 55.1748 11.5566 0.031309 -0.048926 0.153493
115 1 1 16.6997 53.26 10.9887 0.0301109 0.105183 -0.104374
116 1 1 17.3375 53.649 11.5781 0.000977044 0.0382975 0.00242663
117 1 3 16.7297 52.0375 9.48653 -0.0272843 -0.018947 -0.0875824
118 1 1 17.2387 51.5788 8.8078 -0.0376291 -0.0581187 0.0323051
119 1 1 17.146 52.3101 10.3738 0.183426 -0.043555 0.0871584
120 1 1 17.6733 51.2365 7.91645 -0.204973 0.0204696 -0.126748
121 1 3 17.9551 51.2209 6.28106 -0.0107917 -0.0103552 0.040414
122 1 1 18.1222 51.0722 7.31389 0.047314 -0.0586668 -0.0369364
123 1 1 18.5158 53.3961 3.52361 0.0192279 -0.0821001 -0.0874364
124 1 1 18.4171 54.0705 3.18919 0.0399215 -0.024185 -0.101694
125 1 3 18.5202 55.4798 2.82058 0.042929 -0.0224623 0.0823732
126 1 1 18.9144 54.511 2.97499 0.00578721 0.0604763 0.053008
127 1 1 18.6442 57.1343 2.85683 -0.0821329 0.0773502 0.1275
128 1 1 19.086 56.3385 2.57006 0.056571 -0.0417325 -0.0511129
129 1 3 19.1873 57.7995 2.87397 -0.0154633 -0.0287739 0.0862348
130 1 1 18.5645 51.235 5.78331 -0.110032 -0.0703247 0.186131
131 1 1 18.4357 52.5945 4.08531 -0.107027 -0.136906 -0.0504169
132 1 1 18.6066 51.6965 4.86293 0.0116424 -0.0264623 0.0484605
133 1 3 16.2153 56.0248 11.5518 0.0329106 -0.0196785 0.0605057
134 1 1 16.1464 57.0339 11.34 -0.127165 -0.0737293 0.0154335
135 1 1 16.3516 59.0658 10.1679 0.015895 0.0815527 0.0247347
136 1 1 16.1801 57.8497 11.0264 0.00737257 0.084316 0.263511
137 1 3 16.5395 58.5755 10.7814 0.0109037 -0.136772 -0.0948335
138 1 1 16.3013 59.7469 8.86755 0.0360601 0.174339 -0.0813865
139 1 1 16.5865 59.5871 9.65793 0.134506 0.0496103 -0.0786056
140 1 1 16.774 60.1736 8.21206 -0.0436015 0.0105509 -0.00975217
141 1 3 16.6644 60.1201 7.27076 0.074755 -0.0151617 -0.0642032
142 1 1 16.6627 59.9672 6.52064 -0.0883808 0.24018 0.00411088
143 1 1 17.2059 59.945 5.63033 0.075856 0.169045 0.0338966
144 1 1 18.9221 58.7199 3.27059 -0.0777624 -0.00137883 0.0351613
145 1 3 17.9432 59.5028 4.41971 0.0765967 0.0736615 0.109604
146 1 1 17.7957 59.8837 4.92516 0.00811281 -0.0601386 0.119812
147 1 1 18.7503 59.406 3.86249 0.0907592 0.0946497 -0.00712444
148 1 1 17.0043 54.5098 11.8804 -0.138745 0.16615 0.0315587
149 1 3 16.9717 55.4797 12.0544 -0.111998 0.174411 0.00930749
150 1 1 17.7145 52.7344 11.0177 0.0938704 -0.0808628 0.010018
151 1 1 17.8505 54.1699 12.0217 -0.0170036 0.0400528 -0.0273044
152 1 1 18.2386 53.3428 11.6757 0.0350727 -0.0119668 0.0400498
153 1 3 17.6423 51.6874 9.69083 0.0700724 0.246324 -0.0100924
154 1 1 18.1101 51.1903 8.8615 -0.128858 0.0576992 0.0329576
155 1 1 18.0199 52.0065 10.3949 0.0379397 0.000752523 -0.0404366
156 1 1 18.6489 50.9459 8.12865 -0.0582345 -0.107279 -0.112756
157 1 3 18.8055 51.0226 6.66099 0.0365577 0.0814872 -0.158113
158 1 1 18.8641 50.9493 7.44955 0.0219746 -0.0573729 0.0859392
159 1 1 19.0106 52.9498 3.70771 0.00971406 -0.0462777 -0.181883
160 1 1 19.3719 53.7611 3.30482 -0.0166098 -0.0232233 -0.116586
161 1 3 19.7636 54.6424 2.85569 0.0354148 0.0729767 0.0499763
162 1 1 19.4471 55.4089 2.66823 0.1858 0.0357804 0.00766459
163 1 1 19.617 57.1058 2.5157 0.0369672 -0.0441259 0.0348601
164 1 1 19.7923 56.3705 2.41592 0.0688083 0.0482288 -0.0415447
165 1 3 19.7095 58.5364 2.87645 -0.11885 -0.185068 0.0741298
166 1 1 19.8553 57.8237 2.62731 0.102362 0.14098 0.013293
167 1 1 19.2165 51.2512 5.43342 -0.0518351 0.0158612 0.0123864
168 1 1 19.3149 51.0318 6.10028 -0.125786 0.0606562 0.00278208
169 1 3 19.2779 52.2693 4.15091 0.0158353 0.0553595 0.118997
170 1 1 19.594 51.6357 4.81293 0.115046 -0.125607 0.0286842
171 1 1 16.869 56.5927 11.9017 0.0310713 0.0297558 -0.0728569
172 1 1 16.9433 57.5775 11.6671 0.0555985 0.094754 0.129485
173 1 3 16.8478 59.3492 10.3819 -0.0169495 -0.059331 0.031167
174 1 1 17.1156 58.3413 11.4294 -0.116639 -0.0566942 0.0337417
175 1 1 17.2446 58.9581 10.9317 0.0153966 -0.00445549 -0.122726
176 1 1 17.3616 59.8242 9.96927 -0.0648371 0.0565996 -0.048432
177 1 3 17.1095 60.1302 9.10133 0.100408 -0.056025 -0.0926904
178 1 1 17.6307 60.4693 8.50624 0.0152737 -0.0385992 -0.0627704
179 1 1 17.4504 60.4619 7.5498 -0.0375148 0.0499167 -0.125182
180 1 1 17.2376 60.2849 6.50707 0.146812 0.0133171 0.0768873
181 1 3 17.9193 60.4821 6.16944 0.0409506 -0.0545555 -0.0522988
182 1 1 18.1157 60.3798 5.56703 0.0584585 -0.0193671 0.00346552
183 1 1 19.642 59.3619 3.36725 0.1259 -0.0664872 0.0190045
184 1 1 20.3203 58.9686 2.80548 0.0382385 0.144051 0.0615059
185 1 3 18.6354 60.1805 4.60923 -0.050498 -0.0379761 0.0226245
186 1 1 19.3469 59.9918 3.94421 0.0251955 -0.0929757 0.135391
187 1 1 17.7347 55.0629 12.2958 0.00501792 -0.103486 0.298744
188 1 1 17.7016 56.192 12.2834 -0.0150322 0.0281931 0.00520191
189 1 3 18.4644 52.465 11.0626 -0.00615857 0.195869 -0.101035
190 1 1 19.0541 52.8653 11.5188 -0.0434618 0.112848 0.0787357
191 1 1 18.4237 54.724 12.3316 0.114085 0.0673374 0.154785
192 1 1 18.5829 54.0629 12.1212 -0.0234403 -0.0892225 -0.0746759
193 1 3 19.0912 53.4593 11.9337 0.0828021 -0.0547481 0.0227531
194 1 1 18.6459 51.4216 9.71228 0.0268964 -0.0568552 -0.100894
195 1 1 19.1711 51.0137 8.97401 0.0383929 0.00539217 0.105014
196 1 1 19.038 51.8699 10.4188 0.00536599 0.036122 0.0106714
197 1 3 19.59 50.8858 8.03193 0.0108836 -0.107121 -0.051718
198 1 1 19.6559 50.9245 7.01871 -0.140554 -0.0183946 -0.0198432
199 1 1 19.7359 52.9078 3.74439 -0.139155 -0.00390098 -0.0433898
200 1 1 20.1979 53.3431 3.52915 -0.149536 0.332074 -0.0374626
201 1 3 20.1914 54.2021 3.10672 -0.0829079 0.0552318 0.150956
202 1 1 20.292 55.0381 2.7464 -0.185039 -0.00667108 0.00552132
203 1 1 20.4962 55.9401 2.44775 -0.0540695 -0.0550637 -0.125753
204 1 1 20.5149 57.0533 2.30836 -0.154201 -0.12307 -0.143812
205 1 3 20.7132 58.1616 2.4407 -0.113984 0.103495 0.130372
206 1 1 20.0218 51.2364 5.51309 0.0571735 0.00192044 -0.0873396
207 1 1 20.2454 51.0559 6.37039 -0.032201 -0.00582186 -0.0172292
208 1 1 20.08 52.1471 4.33014 -0.0672639 0.111954 -0.0975203
209 1 3 20.5916 51.6518 5.03609 -0.0735576 -0.155153 -0.122573
210 1 1 17.6781 57.1814 12.1009 0.167337 0.0735013 -0.191674
211 1 1 17.8815 57.9882 11.8852 0.0988273 -0.13131 0.147899
212 1 1 17.6535 59.4057 10.6971 0.0348729 0.1719 -0.0674635
213 1 3 18.027 58.7517 11.408 -0.0891569 0.000746432 -0.0766803
214 1 1 18.2462 59.9735 10.3321 -0.129524 -0.0224515 0.0510504
215 1 1 17.9464 60.309 9.43956 0.0523241 0.151708 0.0618369
216 1 1 21.1063 59.1298 2.60224 -0.0867348 0.103403 0.184453
217 1 3 20.6307 59.6467 3.05147 -0.0103664 -0.0541988 -0.0447806
218 1 1 18.4888 60.6973 8.88764 -0.224928 0.0169148 0.00358093
219 1 1 18.3686 60.7887 8.03048 0.0720042 -0.0235555 -0.0892056
220 1 1 18.1307 60.739 7.01494 -0.108854 -0.117705 0.0312461
221 1 3 18.7029 60.8579 6.08331 -0.0790769 0.0407796 0.0459075
222 1 1 19.0714 60.743 5.33214 -0.0185469 0.113938 -0.00722213
223 1 1 20.0737 60.1485 3.7024 0.107749 0.161669 -0.203143
224 1 1 19.6282 60.6098 4.37951 -0.0629422 -0.181848 -0.00838299
225 1 3 18.5098 56.7669 12.387 0.0340477 -0.14636 0.0627141
226 1 1 18.5879 55.6483 12.4937 -0.0832314 -0.064619 0.0329093
227 1 1 19.5406 52.2869 10.9759 0.0395333 -0.0716912 0.0552493
228 1 1 19.8542 52.7912 11.4765 0.170921 -0.0132162 0.0659278
229 1 3 19.7287 53.3342 11.8545 -0.0728869 -0.0853638 0.0749931
230 1 1 19.1549 54.7511 12.3441 -0.169394 0.00788903 -0.0124982
231 1 1 19.462 54.0283 12.1648 -0.0399978 -0.135347 -0.0145997
232 1 1 19.627 51.4072 9.76434 -0.250597 0.116978 0.198606
233 1 3 20.1349 51.2445 9.02847 -0.0636867 0.0904058 0.0828697
234 1 1 20.0489 51.8595 10.4 0.0526526 -0.0606193 -0.0408551
235 1 1 20.6637 51.1939 8.38419 0.0600718 -0.0280669 0.171324
236 1 1 20.4478 51.0327 7.3603 -0.0676983 -0.0430065 0.0127915
237 1 3 20.6004 52.7844 3.90803 -0.115031 0.0995314 0.145082
238 1 1 20.9785 53.6463 3.4087 0.0111268 -0.0867539 0.0966588
239 1 1 21.0361 54.5767 2.92584 0.0795224 -0.233785 -0.0364124
240 1 1 21.2136 55.4388 2.6011 -0.154879 0.0556087 0.0930598
241 1 3 21.3214 56.4337 2.371 -0.0327134 -0.0838364 -0.178876
242 1 1 21.418 57.4629 2.2167 0.0788448 -0.121377 0.0122587
243 1 1 21.6675 58.5438 2.20736 -0.0411574 -0.0198076 -0.0922233
244 1 1 20.9171 51.4066 5.87066 0.11064 0.0710439 0.0285122
245 1 3 21.1309 51.2394 6.77452 0.0172022 0.0587184 -0.114181
246 1 1 21.0517 52.2805 4.4146 -0.182403 0.0905449 0.00405121
247 1 1 21.3931 51.8245 5.19987 -0.0185723 -0.0134112 0.148435
248 1 1 18.5449 57.6753 12.2072 -0.0873833 0.0897269 -0.0340723
249 1 3 18.66 58.2754 11.9304 0.0492421 -0.169242 0.0647347
250 1 1 18.602 59.4273 11.0178 -0.22123 0.211644 -0.0533048
251 1 1 19.027 58.8333 11.5976 0.0302451 -0.0943047 0.0833825
252 1 1 19.1565 60.0722 10.5623 0.268801 -0.0512505 -0.0134773
253 1 3 18.8192 60.4624 9.74042 0.0110729 -0.0109883 -0.0267276
254 1 1 22.0429 59.5394 2.33947 -0.0600371 -0.0661922 0.0766795
255 1 1 21.4464 60.0127 2.87721 0.0379552 -0.00607016 0.192698
256 1 1 20.8901 60.4414 3.46745 0.11489 0.0425281 0.111305
257 1 3 19.3714 60.9161 9.16615 0.172476 0.206793 -0.133639
258 1 1 19.2215 61.0522 8.39394 -0.0351548 0.0641762 0.119597
259 1 1 18.9651 61.0802 7.6154 0.117021 0.0690472 0.0328111
260 1 1 19.1795 61.1799 6.83193 0.0733773 -0.0621303 -0.0699901
261 1 3 19.5972 61.1858 6.03715 -0.121538 0.0271201 0.0554312
262 1 1 19.9081 61.1458 5.10754 0.00280115 -0.0390413 0.045449
263 1 1 20.4806 60.903 4.25281 0.130796 0.0133452 -0.0102399
264 1 1 19.1519 57.2352 12.3664 -0.0711987 -0.0968422 0.109186
265 1 3 19.35 56.4948 12.5508 -0.0822859 -0.0841029 -0.00396699
266 1 1 19.6673 55.5637 12.5742 0.222505 -0.118112 0.185634
267 1 1 20.612 52.3605 10.9209 0.0114972 0.0685275 0.114716
268 1 1 20.5109 53.0801 11.6134 0.00459024 0.0632331 -0.0778496
269 1 3 20.3006 53.8103 12.0642 0.0282317 0.168269 -0.0401189
270 1 1 19.9803 54.6961 12.3389 -0.0461254 0.108226 -0.215103
271 1 1 20.5016 51.6106 9.75343 -0.0578864 0.237582 0.0654027
272 1 1 20.8773 51.4737 9.08015 -0.0620664 -0.114842 -0.0414855
273 1 3 20.9087 51.9519 10.1314 0.0425486 0.0324971 -0.120792
274 1 1 21.4427 51.4746 8.59213 0.034443 -0.195752 -0.0608722
275 1 1 21.2286 51.2911 7.71462 -0.00323857 0.0505392 0.278725
276 1 1 21.5915 52.9748 3.94707 0.0246763 0.156736 -0.0251444
277 1 3 22.0475 53.4359 3.66556 -0.0338586 0.025651 0.121068
278 1 1 21.9347 54.1017 3.23864 -0.118504 0.0206874 -0.0953138
279 1 1 21.9581 54.8653 2.88581 0.0052119 0.0899585 0.029793
280 1 1 22.0828 55.8281 2.46374 0.0751 0.0123353 0.113844
281 1 3 22.1571 56.7932 2.20033 -0.022533 -0.0253699 -0.0712414
282 1 1 22.2847 57.8395 2.02088 -0.0817224 -0.151242 -0.117821
283 1 1 22.6008 58.914 2.02557 0.0586894 0.0964242 0.00517433
284 1 1 21.7325 51.5711 6.03507 -0.209822 -0.0907949 -0.0726058
285 1 3 21.9767 51.6571 6.96585 0.0485187 0.0370427 -0.0140705
286 1 1 21.9631 52.3418 4.66589 -0.0743716 0.00455064 0.0368521
287 1 1 22.2869 51.9308 5.50105 -0.0628566 0.13531 0.00767425
288 1 1 19.465 58.0159 12.1083 0.160881 -0.139247 0.0551073
289 1 3 19.4902 59.3994 11.2326 0.110094 0.0548305 0.0645991
290 1 1 19.6965 58.8436 11.6458 0.207284 -0.0796285 -0.0316217
291 1 1 22.9594 59.9511 2.15345 -0.148393 0.12592 -0.0758524
292 1 1 20.0966 60.0843 10.7489 -0.09164 0.064948 0.0268916
293 1 3 19.7018 60.6211 10.0296 -0.00264657 -0.081018 -0.0843895
294 1 1 22.3341 60.3903 2.63209 0.131017 -0.101291 0.163391
295 1 1 21.816 60.8421 3.30107 0.065869 0.0287523 0.0101978
296 1 1 21.3378 61.148 3.95648 -0.10124 0.0281662 -0.183973
297 1 3 20.2115 61.1211 9.44776 0.0494353 -0.0831371 0.0163113
298 1 1 19.8186 61.1472 8.71726 0.141693 -0.0363067 -0.132875
299 1 1 19.8556 61.3476 7.68761 -0.0637034 0.0101126 -0.0353586
300 1 1 20.2177 61.5256 6.71639 0.102857 -0.0615878 0.0129106
301 1 3 20.482 61.6139 5.80048 0.0820999 -0.031383 -0.169153
302 1 1 20.8527 61.4761 4.83175 -0.121309 -0.00637551 0.0635371
303 1 1 20.6075 55.4277 12.3869 0.00639641 0.0712015 -0.0807836
304 1 1 19.8877 57.2096 12.4018 -0.0734353 0.0469688 -0.0814712
305 1 3 20.3178 56.4103 12.5109 -0.126274 0.0433985 -0.0791127
306 1 1 21.4511 52.348 10.407 0.0605312 0.0132476 -0.162415
307 1 1 21.3322 52.9361 11.2224 -0.0387704 0.0398312 -0.0083882
308 1 1 21.0543 53.6975 11.8046 -0.0190102 -0.12084 -0.0353387
309 1 3 20.8304 54.5447 12.1835 0.0112359 0.122303 0.00806033
310 1 1 21.5203 51.888 9.53049 0.0711259 0.125117 -0.0449792
311 1 1 22.1332 51.9097 8.81771 -0.160101 0.0889062 -0.0444445
312 1 1 22.1781 51.7083 7.86864 -0.145835 0.0644069 0.0780248
313 1 3 22.5875 52.9531 4.24687 0.0490216 -0.130247 0.0716302
314 1 1 22.7124 53.7517 3.53494 -0.0870269 -0.044163 -0.0907404
315 1 1 22.8714 54.5675 3.04291 -0.0258863 -0.112389 -0.0344257
316 1 1 22.8069 55.3689 2.63747 -0.0461792 -0.00571428 -0.160038
317 1 3 22.9839 56.3175 2.24648 0.0762154 0.0542847 0.0632968
318 1 1 23.0576 57.2208 1.96768 0.0484774 0.10708 0.0541981
319 1 1 23.2198 58.2958 1.85474 -0.090273 0.191403 0.0237611
320 1 1 23.5306 59.3158 1.82165 -0.0190464 -0.0672996 0.0170355
321 1 3 22.5512 51.8208 6.35268 0.164291 -0.108233 -0.0416015
322 1 1 22.6961 51.9198 7.10177 0.0721555 -0.0387766 0.131837
323 1 1 22.8596 52.4336 5.07625 0.0368072 -0.101597 -0.0472943
324 1 1 22.9777 52.1941 5.74401 -0.131671 0.0563039 -0.0456709
325 1 3 20.3684 57.8455 12.1793 0.0643027 -0.0150734 -0.151076
326 1 1 20.4034 58.4898 11.9313 -0.0489456 -0.0675323 -0.183113
327 1 1 20.4254 59.3611 11.3564 -0.0731708 -0.104975 0.161048
328 1 1 20.8914 60.1118 10.8694 0.193076 -0.00079754 0.124661
329 1 3 23.8994 60.2556 2.00164 0.0604408 0.0460744 -0.108362
330 1 1 23.2473 60.8535 2.48668 0.00579961 -0.0202057 0.0173394
331 1 1 20.6447 60.7396 10.2077 -0.122703 -0.049215 -0.0641099
332 1 1 22.7084 61.3262 3.05316 0.111152 0.161909 -0.00976223
333 1 3 22.2057 61.6309 3.80211 0.0423281 0.0133642 0.124405
334 1 1 21.6887 61.8276 4.62547 0.0500115 -0.148555 -0.206658
335 1 1 20.9754 61.3021 9.49517 0.0499533 0.124395 0.0398835
336 1 1 20.7398 61.5118 8.60232 -0.0263647 0.0914655 0.0481398
337 1 3 20.8683 61.7801 7.54957 -0.15855 -0.0513844 0.0277709
338 1 1 21.0161 61.9196 6.56312 0.106553 0.0745711 0.0482417
339 1 1 21.3364 61.9763 5.57805 0.0428729 0.0168739 -0.106105
340 1 1 22.0353 52.4892 10.133 0.150492 -0.0533705 0.0113734
341 1 3 21.551 55.3267 12.2611 -0.0015795 -0.108947 -0.114583
342 1 1 21.3016 56.19 12.3658 0.046314 -0.0414335 0.0631979
343 1 1 20.9148 57.1773 12.356 -0.32364 -0.00077857 0.0792776
344 1 1 21.9975 52.9397 10.7107 -0.0251435 0.1466 0.157963
345 1 3 21.9113 53.6105 11.4052 0.010344 0.113803 -0.118685
346 1 1 21.6916 54.3994 11.9127 -0.00719572 0.15679 0.0689548
347 1 1 22.3251 55.0157 11.9909 0.0040748 0.0419238 -0.0746776
348 1 1 22.4083 52.2167 9.35614 0.207155 -0.0749146 0.0889987
349 1 3 22.8125 52.1455 8.58659 -0.0725911 -0.0731366 0.0857932
350 1 1 23.3052 52.2947 7.68719 0.0359879 -0.0986313 0.0305218
351 1 1 23.3882 52.9447 4.67449 0.0617106 0.0748134 -0.189367
352 1 1 23.4658 53.4608 4.09394 -0.0114373 -0.0601154 -0.0867148
353 1 3 23.5974 54.1453 3.47926 0.0594299 -0.0275017 0.00801501
354 1 1 23.685 54.9621 2.89673 0.153477 0.151214 0.00469814
355 1 1 23.7446 55.7089 2.44404 0.0140381 -0.0636755 0.148083
356 1 1 23.8684 56.5923 2.02608 0.0754531 0.0845069 -0.173307
357 1 3 24.0124 57.5822 1.7283 -0.0339429 -0.0818101 0.0446454
358 1 1 24.1587 58.6882 1.55918 -0.0457941 -0.120213 0.0391275
359 1 1 24.4812 59.6941 1.61194 -0.193346 0.0180936 0.063914
360 1 1 23.4396 52.2701 6.65499 -0.132983 0.147816 0.116227
361 1 3 23.8008 52.6543 5.57789 -0.0363007 0.138223 0.163955
362 1 1 21.1483 58.0669 12.0998 -0.0877262 -0.174767 -0.0676558
363 1 1 21.2269 58.9121 11.7385 -0.0161373 -0.0887256 -0.0438087
364 1 1 21.4913 59.7444 11.2147 -0.00939584 -0.174016 -0.0650028
365 1 3 21.453 60.5043 10.6552 0.026299 -0.0935979 0.178545
366 1 1 24.6643 60.7527 1.82624 0.0973495 -0.166332 -0.153957
367 1 1 24.119 61.3648 2.27875 -0.00664119 0.168468 -0.0847084
368 1 1 23.6005 61.8491 2.84588 -0.0112395 0.00566346 0.137587
369 1 3 21.5869 61.1611 9.98964 0.00678888 -0.125836 0.0944901
370 1 1 23.0135 0.146877 3.58334 0.108433 0.101522 -0.118401
371 1 1 22.5523 0.355391 4.43994 -0.14973 0.0202196 -0.0855113
372 1 1 22.1419 0.439297 5.38054 0.103118 0.148681 -0.119864
373 1 3 21.6239 61.6334 9.17381 -0.118398 0.0854779 -0.122631
374 1 1 21.6416 61.8999 8.29529 -0.019209 -0.0309552 0.0750076
375 1 1 21.7158 0.214924 7.31147 -0.107308 0.0482656 -0.0167348
376 1 1 21.858 0.360567 6.35342 0.043723 0.117326 0.033807
377 1 3 22.8874 52.8694 10.0683 0.213077 -0.0538505 -0.00362942
378 1 1 22.116 55.9665 12.2242 0.122334 -0.090524 0.0454911
379 1 1 21.8358 56.7634 12.3 -0.0499385 0.0432326 -0.066897
380 1 1 22.0037 57.5603 12.1964 0.195224 0.075755 0.120292
381 1 3 22.7411 53.5824 10.8896 -0.124164 -0.0146147 0.211744
382 1 1 22.5895 54.2092 11.5125 0.110319 -0.0317985 -0.10136
383 1 1 23.1252 55.0563 11.6663 0.112332 -0.18297 -0.0635996
384 1 1 22.7381 55.6278 12.0485 -0.0171407 -0.0381894 0.063972
385 1 3 23.2417 52.5972 9.21597 0.0867317 -0.101507 -0.0929549
386 1 1 23.7436 52.5334 8.32485 -0.0459398 0.0735293 0.000841714
387 1 1 24.0388 52.567 7.36402 -0.00614936 0.0539018 0.0339496
388 1 1 24.1238 53.1875 4.70558 -0.117793 0.0235834 -0.016759
389 1 3 24.3476 53.8319 4.10198 0.221717 -0.0147791 -0.263791
390 1 1 24.3868 54.557 3.36349 0.278687 0.0596107 -0.0952585
391 1 1 24.6028 55.3078 2.75592 -0.0902974 -0.0345363 -0.104448
392 1 1 24.6757 56.1464 2.22477 0.0221275 -0.0394897 0.0907196
393 1 3 24.7434 57.0546 1.72511 -0.0067839 -0.0405737 -0.00903058
394 1 1 24.8559 58.0033 1.48561 -0.0780008 0.0750214 -0.208395
395 1 1 25.0624 59.1032 1.44184 -0.208266 0.0435634 -0.0141024
396 1 1 25.3358 60.1119 1.4139 0.0426699 -0.077205 -0.057354
397 1 3 24.4387 52.7901 6.38523 0.0369456 0.00163703 -0.152775
398 1 1 24.7258 53.0719 5.42231 -0.188843 0.176789 -0.0614255
399 1 1 22.1166 58.297 11.9354 -0.175662 0.245019 -0.0797604
400 1 1 22.1504 59.1977 11.6063 0.0487353 -0.0302796 0.13738
401 1 3 22.2756 60.0634 11.043 0.0493972 0.128294 0.101952
402 1 1 25.5151 61.1049 1.5642 -0.0941748 -0.0873164 0.151967
403 1 1 22.3688 60.8431 10.4317 -0.201991 -0.0606219 0.14124
404 1 1 24.9659 61.7752 2.06642 0.035903 -0.0360578 0.144696
405 1 3 24.4736 0.331851 2.62572 -0.0711517 0.015751 0.00875291
406 1 1 23.9325 0.565881 3.3635 -0.151483 0.097642 0.0805156
407 1 1 22.4028 61.5342 9.657 -0.00377766 -0.128076 0.106173
408 1 1 23.41 0.805888 4.23898 -0.117404 -0.0912547 0.0543047
409 1 3 22.9893 0.873745 5.09112 0.0457554 -0.175071 0.142868
410 1 1 22.7161 0.863471 6.13423 -0.156205 0.0362966 -0.0200672
411 1 1 22.4349 0.0603811 8.87229 0.0711447 -0.0314744 -0.0703315
412 1 1 22.5467 0.399856 7.95246 0.183906 -0.14625 -0.0894013
413 1 3 22.6064 0.680361 7.08858 0.0156833 -0.0522142 0.121526
414 1 1 23.4038 53.589 10.4715 -0.0555639 0.226254 0.0461084
415 1 1 23.8688 53.2631 9.79374 -0.130914 -0.114434 0.0274028
416 1 1 22.8106 56.7153 12.1296 -0.235294 -0.106635 -0.0984199
417 1 3 22.9881 57.7229 12.0431 -0.0378741 0.0570923 0.0249031
418 1 1 23.3795 54.3083 11.1017 0.161626 0.0577235 -0.0091552
419 1 1 23.8533 55.0854 11.3241 0.119052 0.104064 -0.16358
420 1 1 23.6669 55.9816 11.8224 0.196713 -0.0518904 0.0562746
421 1 3 24.2058 53.0355 8.97895 -0.248486 0.0586473 -0.201608
422 1 1 24.5708 52.934 8.10311 0.31257 0.147027 0.00760207
423 1 1 24.8928 52.9191 7.17451 -0.0432783 0.205596 0.0185291
424 1 1 25.0768 53.5825 4.62384 -0.0503521 -0.0571856 -0.167603
425 1 3 25.1565 54.1907 3.92112 -0.0397177 -0.0128917 0.0534687
426 1 1 25.3881 54.9311 3.15205 0.00894754 -0.225072 -0.0724038
427 1 1 25.4899 55.7259 2.52156 -0.000664568 0.141345 -0.190152
428 1 1 25.5623 56.5398 1.90572 -0.016541 0.0199521 0.11304
429 1 3 26.2312 60.5532 1.15753 -0.0395203 -0.0319092 0.00699935
430 1 1 25.7492 57.3927 1.50054 0.0373293 0.0587389 0.0531527
431 1 1 25.7758 58.4206 1.2913 0.115709 -0.00489852 -0.106315
432 1 1 25.9592 59.4837 1.16763 -0.0717789 -0.0173267 -0.0250273
433 1 3 25.3391 53.0636 6.19976 -0.0426716 0.00660383 0.00115297
434 1 1 25.7324 53.4192 5.26429 -0.376603 -0.0781135 -0.0516814
435 1 1 22.9986 58.6618 11.7439 -0.132574 0.0364101 -0.3347
436 1 1 23.0279 59.5775 11.351 -0.228626 -0.0584987 -0.0621335
437 1 3 23.1858 60.3567 10.7799 0.196701 0.0591328 0.0731924
438 1 1 26.4572 61.4885 1.33498 -0.109412 -0.114738 -0.219952
439 1 1 25.885 0.0793126 1.84204 -0.0451357 0.013558 -0.111336
440 1 1 23.1416 61.1591 10.149 0.132392 -0.0909764 -0.0314712
441 1 3 25.3323 0.674977 2.45911 -0.102724 -0.00871768 0.0783773
442 1 1 24.8421 1.08968 3.24451 -0.034995 0.00610082 0.142149
443 1 1 24.3176 1.27381 4.04218 0.151664 0.0416491 -0.0821354
444 1 1 23.2761 61.8457 9.43214 -0.152094 -0.265601 -0.0313836
445 1 3 23.8856 1.39736 4.91587 0.0707389 0.299573 0.00836897
446 1 1 23.5561 1.2526 5.82468 -0.0715155 -0.100799 0.225697
447 1 1 23.4832 1.14512 6.83829 0.00484573 0.0585506 -0.121111
448 1 1 23.3423 0.470124 8.63892 -0.0774519 0.0627569 -0.0713957
449 1 3 23.3955 0.847622 7.78156 -0.0748698 0.109238 0.157958
450 1 1 24.053 53.9748 10.4196 0.0788657 -0.0930381 0.0349047
451 1 1 24.684 53.6981 9.61839 -0.0503844 0.00730273 -0.110025
452 1 1 23.7551 57.0913 11.9592 0.129566 -0.0585249 -0.133991
453 1 3 23.8529 58.1124 11.8813 0.0308345 0.132257 -0.075562
454 1 1 24.3935 54.7718 10.8704 -0.0938722 0.131646 0.0503619
455 1 1 24.5546 55.5464 11.3239 -0.00260745 0.17954 -0.0676903
456 1 1 24.6168 56.4809 11.6094 -0.161332 -0.118688 0.0628774
457 1 3 25.0704 53.4457 8.80212 0.047921 -0.0888529 -0.00561442
458 1 1 25.4448 53.3474 7.89897 -0.076794 0.166309 0.13813
459 1 1 25.8247 53.2919 6.96221 -0.102234 0.0459913 0.191497
460 1 1 25.9693 53.9263 4.40491 -0.0324711 0.0713407 0.119607
461 1 3 26.0912 54.5595 3.61979 -0.0714958 -0.0890763 -0.0121934
462 1 1 26.3255 55.2536 2.89025 0.101025 0.0751518 0.0964448
463 1 1 26.3451 56.1112 2.24108 -0.0254228 -0.0408504 0.120328
464 1 1 26.4816 56.9239 1.73067 -0.168611 0.031811 -0.0549774
465 1 3 27.1303 60.9876 0.963595 -0.0646925 -0.132384 0.0678607
466 1 1 26.8865 59.8809 0.902106 -0.0321673 0.093816 0.0245429
467 1 1 26.5748 57.841 1.32516 -0.0154868 0.115055 -0.0154488
468 1 1 26.7155 58.8116 1.00242 0.0243476 -0.0426745 -0.0656404
469 1 3 26.3024 53.4296 6.01042 0.021232 -0.0391613 0.0970261
470 1 1 26.6344 53.7277 5.06938 -0.0458389 -0.197191 0.0833726
471 1 1 23.8621 59.0762 11.5613 -0.11767 -0.00143916 0.0274621
472 1 1 23.989 59.9418 11.1206 0.0901498 0.0475727 -0.137251
473 1 3 24.0261 60.7771 10.5784 0.146381 0.261407 -0.0455142
474 1 1 27.3136 61.9651 1.18711 0.0559617 -0.181477 0.153427
475 1 1 26.6865 0.484971 1.72351 0.142441 0.166812 0.0351278
476 1 1 26.2733 1.10384 2.31969 0.214988 0.0226274 0.0268747
477 1 3 24.0632 61.5148 9.98648 0.0356218 0.0377675 -0.100966
478 1 1 25.7011 1.44043 3.0219 -0.0676122 -0.14944 0.0566368
479 1 1 25.2672 1.77286 3.89622 -0.112115 0.0225736 0.00399182
480 1 1 24.7961 1.8582 4.66641 0.106129 -0.0956762 0.168434
481 1 3 24.1242 0.284922 9.24813 -0.159572 0.122281 0.00196895