ITEM: TIMESTEP
100000000
ITEM: NUMBER OF ATOMS
57074
ITEM: BOX BOUNDS pp pp pp
0 62
0 62
0 62
ITEM: ATOMS id mol type x y z vx vy vz 
1 1 1 14.8824 19.6553 27.5892 -0.10124 -0.0683185 -0.0348272 
2 1 1 14.4202 20.3376 27.665 -0.199865 0.147284 0.220925 
3 1 1 14.8335 20.0821 26.835 0.139886 -0.0013784 0.0119339 
4 1 1 14.4312 20.8733 26.9053 0.00629975 -0.111345 -0.0412164 
5 1 1 15.3535 19.2967 26.8731 0.141209 0.0543565 -0.0245271 
6 1 1 14.967 20.5463 26.0695 -0.102695 -0.0354018 -0.0204392 
7 1 1 14.6331 21.4865 26.0832 -0.177179 -0.0329272 -0.195695 
8 1 1 14.5799 19.7934 28.4473 -0.0242444 -0.0554804 0.018487 
9 1 1 14.1644 20.6463 28.5695 -0.138709 0.102183 -0.0435801 
10 1 1 14.1097 21.143 27.8124 0.0834298 -0.0866996 0.0914965 
11 1 1 14.1625 21.683 27.0185 0.0601186 -0.041231 -0.119841 
12 1 1 14.3665 22.3237 26.4326 0.148195 0.124722 0.120404 
13 1 1 15.1112 19.0402 28.3925 -0.0756266 -0.0671514 0.0136345 
14 1 1 15.2934 19.0041 27.557 -0.0307401 -0.0393631 0.0541697 
15 1 1 15.8623 18.6093 27.1054 0.197469 0.04439 -0.0204352 
16 1 1 15.4015 19.7471 26.0239 0.0611483 0.107934 0.087722 
17 1 1 15.9601 18.9947 26.2081 -0.0961038 0.00314732 0.135121 
18 1 1 14.738 22.3703 25.7744 0.0183759 0.263974 0.010622 
19 1 1 15.1259 21.9504 25.3004 0.107881 0.0272589 0.18749 
20 1 1 15.2662 21.2018 25.3301 -0.242821 -0.0981898 0.17369 
21 1 1 15.6188 20.441 25.2717 -0.0050922 0.040546 0.0625869 
22 1 1 15.3988 18.7681 28.9415 -0.0863305 0.0322058 0.118161 
23 1 1 14.7767 19.4763 29.168 -0.105657 0.0645115 -0.131553 
24 1 1 14.3061 20.2291 29.3079 -0.00370628 -0.117361 0.0592655 
25 1 1 14.0563 20.9174 29.5078 0.190728 -0.0618486 -0.026971 
26 1 1 13.8363 21.4933 28.8451 0.0128561 -0.0704994 0.0517838 
27 1 1 13.8553 22.0522 28.0502 -0.085206 0.0998309 -0.0908505 
28 1 1 14.6113 23.0468 26.0635 -0.0206793 0.0153737 -0.128947 
29 1 1 14.009 22.6063 27.3921 -0.149701 -0.144121 -0.0231031 
30 1 1 14.2377 23.2031 26.8446 0.0416813 0.00684344 0.135707 
31 1 1 15.8428 18.4464 28.0475 0.0467249 -0.00651869 -0.0490405 
32 1 1 16.4059 18.2157 27.2219 0.305102 0.039611 -0.000890664 
33 1 1 16.576 18.4649 26.4292 -0.0136711 0.166083 0.081589 
34 1 1 16.1484 19.5389 25.4073 -0.0600981 0.0997664 0.0471211 
35 1 1 16.8123 18.8421 25.7108 -0.184451 0.0126662 -0.121857 
36 1 1 15.0918 22.8572 25.3324 0.087034 -0.0284159 0.104652 
37 1 1 15.6142 22.5737 24.7517 0.215789 -0.022365 -0.062826 
38 1 1 14.8853 23.6605 25.7179 0.015046 0.0392606 0.101285 
39 1 1 15.8381 21.7978 24.6949 0.0447224 0.0222839 0.0597412 
40 1 1 16.1104 21.0352 24.6613 0.0816775 -0.0412457 -0.257702 
41 1 1 16.5161 20.1829 24.778 0.0571821 -0.069294 -0.0633673 
42 1 1 15.9331 18.3134 29.0169 -0.215428 -0.0890166 -0.0852471 
43 1 1 15.6973 18.5861 29.8608 0.0142284 0.0580235 -0.01337 
44 1 1 15.0896 19.1835 29.895 0.101525 0.112808 -0.066247 
45 1 1 14.5937 19.8058 29.8378 -0.0661386 0.00394182 0.0386413 
46 1 1 14.37 20.3657 30.2462 -0.00204333 -0.137288 0.113238 
47 1 1 14.1675 21.2108 30.3864 0.104431 0.0392593 -0.000947661 
48 1 1 13.8119 21.867 29.7751 -0.0889413 -0.182946 0.132987 
49 1 1 13.6948 22.4795 28.9423 -0.0816505 0.187038 -0.0815477 
50 1 1 13.789 22.9968 28.265 0.0150038 -0.177965 -0.23151 
51 1 1 14.5173 23.8803 26.4392 -0.182743 0.064452 -0.048508 
52 1 1 14.0391 23.5852 27.6595 0.0987746 -0.0748644 0.0806289 
53 1 1 14.303 23.9208 27.0803 0.15014 0.167156 0.0155553 
54 1 1 16.4678 17.9935 28.5935 -0.146319 0.124828 0.0642577 
55 1 1 16.7325 17.9065 29.5603 -0.0949646 0.0449697 0.0443675 
56 1 1 16.6643 18.0114 27.8941 0.0342763 -0.0599995 0.156552 
57 1 1 17.0574 18.0121 27.1258 -0.0502849 0.0306072 0.247631 
58 1 1 17.403 17.6832 28.3796 -0.104299 -0.0414122 -0.0625549 
59 1 1 17.4109 18.3158 26.3328 -0.0544504 -0.0226199 0.0845612 
60 1 1 17.1253 19.4499 25.0389 -0.126188 0.0425747 0.154449 
61 1 1 17.7147 18.7108 25.5976 0.0495639 0.1617 0.0327943 
62 1 1 16.253 22.4105 24.3567 -0.0975231 0.0741293 -0.123257 
63 1 1 15.4238 23.4482 25.0555 -0.0527896 -0.150916 0.0188565 
64 1 1 16.1233 23.2822 24.5075 -0.0912414 -0.114339 -0.148199 
65 1 1 14.9964 24.4801 26.1046 0.136145 0.239604 -0.00412071 
66 1 1 15.4548 24.2193 25.318 -0.0587817 -0.0338301 -0.112947 
67 1 1 16.5502 21.7961 24.3007 -0.0402156 0.0418232 -0.011119 
68 1 1 16.9736 20.9676 24.2966 0.0957974 0.0771714 0.149643 
69 1 1 17.4711 20.1114 24.5001 -0.0825327 -0.0258021 -0.00730099 
70 1 1 16.2092 18.2618 29.9455 0.0653409 0.00635795 0.102095 
71 1 1 15.6809 18.8295 30.5543 0.172362 -0.103973 -0.155049 
72 1 1 14.9729 19.7025 30.8214 -0.256226 -0.261493 -0.129299 
73 1 1 14.6241 20.642 31.0783 0.09376 0.0719878 0.0971115 
74 1 1 14.3944 21.4877 31.1659 0.134094 0.000794354 -0.0607246 
75 1 1 14.0587 22.164 30.623 -0.144426 0.0320417 -0.0860806 
76 1 1 13.7271 22.8619 29.8387 0.0209672 0.0909366 -0.0606617 
77 1 1 13.7565 23.4652 29.0689 0.0533889 -0.0945577 -0.00439249 
78 1 1 13.9242 24.031 28.4991 -0.120953 -0.0350999 0.0185261 
79 1 1 14.5781 24.5544 26.8621 -0.152207 -0.00516004 0.0863281 
80 1 1 14.3321 24.5591 27.7929 -0.0874776 0.0209975 0.0825459 
81 1 1 15.1669 25.2013 26.5292 0.0523749 -0.0786581 -0.0152215 
82 1 1 17.0194 18.0515 30.5041 0.104306 0.0810356 -0.10757 
83 1 1 17.457 17.5875 29.1584 0.00655483 -0.157274 0.147978 
84 1 1 17.3962 17.7295 29.9429 -0.0116443 0.0335122 -0.099696 
85 1 1 17.5832 17.6979 27.8456 -0.136699 0.00350523 -0.0995391 
86 1 1 17.9588 17.8971 26.9674 -0.00199317 0.222408 0.154625 
87 1 1 18.1152 17.5045 28.4937 -0.0711556 -0.069843 0.0321559 
88 1 1 18.3146 18.2618 26.1135 0.0703581 -0.0527249 0.0660818 
89 1 1 18.0591 19.3108 24.8772 -0.193329 0.155474 0.0942181 
90 1 1 18.7652 18.6332 25.4701 -0.0203639 -0.0099585 -0.0407882 
91 1 1 17.0056 22.7304 24.0355 -0.0426876 0.0110534 -0.102297 
92 1 1 16.1359 24.0451 24.7291 0.119756 0.00214285 -0.0127466 
93 1 1 16.9238 23.6338 24.2355 0.0302891 0.0521987 -0.225078 
94 1 1 15.6794 24.9397 25.6697 -0.0204203 0.0174818 -0.104913 
95 1 1 16.2755 24.7092 25.0788 0.0452709 -0.146123 0.0248854 
96 1 1 17.438 21.8321 23.9736 0.110575 -0.00189109 -0.0423981 
97 1 1 17.7994 20.8277 24.1277 -0.186845 0.209364 -0.147227 
98 1 1 18.5256 20.013 24.4597 -0.0719879 0.0211013 -0.0112078 
99 1 1 16.332 18.4855 30.8386 -0.0547902 -0.0384805 -0.0446868 
100 1 1 15.8571 19.1947 31.4044 0.0748055 0.0518254 0.010157 
101 1 1 15.3699 20.0867 31.7215 -0.00774074 0.133599 -0.0486417 
102 1 1 14.9734 21.0083 31.8145 0.171969 -0.208978 -0.106816 
103 1 1 14.3156 22.3136 31.3012 0.0151537 -0.145603 0.193501 
104 1 1 14.6835 21.8725 31.7901 -0.00949192 -0.0994632 -0.0239999 
105 1 1 14.0573 23.1748 30.9079 -0.0279126 -0.00585471 -0.12811 
106 1 1 13.8852 23.8401 29.9318 0.0334813 0.110611 -0.0255627 
107 1 1 14.0528 24.387 29.2835 -0.0898484 0.0753938 -0.138706 
108 1 1 14.2396 24.7343 28.7031 -0.0539914 -0.0347804 -0.050658 
109 1 1 15.8008 25.6955 26.3352 0.032366 0.0786591 0.0642495 
110 1 1 14.8351 25.2575 27.4828 -0.105816 0.0052828 0.104641 
111 1 1 14.6978 25.2946 28.4968 -0.08905 0.199057 0.123232 
112 1 1 15.4976 25.881 27.2171 -0.132559 -0.102619 0.0622687 
113 1 1 17.8782 17.8284 30.5164 -0.0422886 0.0338276 -0.055809 
114 1 1 17.1939 18.3029 31.1772 -0.00173791 0.00101305 0.0145239 
115 1 1 18.3333 17.4719 29.6668 0.0081939 0.0706837 -0.0121178 
116 1 1 18.7743 17.7573 30.4885 0.0411417 -0.155332 0.0161777 
117 1 1 18.6093 17.5814 27.7444 0.0605197 0.136003 -0.109972 
118 1 1 19.0496 17.8773 26.9015 -0.0496791 -0.0610255 -0.0900495 
119 1 1 19.0685 17.412 28.7898 0.101046 0.00571302 0.100995 
120 1 1 19.4143 18.2273 26.1156 0.0536985 0.0761086 -0.0477812 
121 1 1 19.094 19.1926 24.9473 -0.0257243 0.05319 0.0974299 
122 1 1 19.8059 18.6713 25.5958 0.0206372 0.0668926 -0.230331 
123 1 1 18.009 22.6459 23.8244 -0.131646 0.0373634 -0.0543629 
124 1 1 17.6753 23.261 23.9159 -0.0372353 -0.155175 -0.175753 
125 1 1 17.01 24.3819 24.5127 -0.0350128 -0.0412492 -0.00567823 
126 1 1 17.6739 23.9397 24.1135 0.0908019 -0.0362894 0.0868072 
127 1 1 16.3831 25.5178 25.6142 -0.123098 0.189714 -0.0845896 
128 1 1 17.0818 25.3011 25.0847 -0.105435 0.134065 0.100442 
129 1 1 16.4375 26.202 26.116 0.040792 -0.0742994 0.0546574 
130 1 1 19.4662 19.9473 24.4911 -0.0287815 -0.0941606 0.141364 
131 1 1 18.3167 21.711 23.8499 0.221416 -0.254296 -0.190762 
132 1 1 19.0998 20.8258 24.1398 0.106831 -0.0663519 -0.0101743 
133 1 1 16.7209 18.866 31.7709 0.0927768 -0.149677 -0.196375 
134 1 1 16.1106 19.6195 32.0831 0.0723193 -0.108384 0.0799925 
135 1 1 15.1683 21.6529 32.3085 -0.057634 -0.0292439 0.0700121 
136 1 1 15.7507 20.4235 32.3491 0.048982 -0.0538374 0.0801839 
137 1 1 15.651 21.1815 32.5807 0.0147978 0.161897 -0.128074 
138 1 1 14.5577 22.8467 31.7603 0.0276749 0.119875 -0.162608 
139 1 1 15.0471 22.3497 32.3258 0.128038 -0.087703 0.123828 
140 1 1 14.599 23.7464 31.6199 0.137371 -0.0375534 -0.0157914 
141 1 1 14.2693 24.1845 30.728 -0.0968424 0.147911 -0.168324 
142 1 1 14.1677 24.4288 30.0017 0.109475 0.0634083 0.0913832 
143 1 1 14.5723 25.1297 29.4396 -0.0804291 0.0065671 -0.0725743 
144 1 1 16.0588 26.4367 26.931 0.166128 0.0437744 0.220126 
145 1 1 15.1387 25.7975 28.0895 -0.118224 -0.0375663 0.0240881 
146 1 1 15.0389 25.7831 28.8036 0.041411 -0.128985 0.0299125 
147 1 1 15.839 26.5403 27.8378 0.211772 0.287834 0.0452245 
148 1 1 18.2605 18.1117 31.2393 0.0519349 -0.0741614 0.0349672 
149 1 1 17.6377 18.6272 31.9594 -0.140005 -0.141933 -0.121959 
150 1 1 19.4461 17.5011 29.7488 -0.0445009 -0.046276 0.0545216 
151 1 1 19.0365 18.1315 31.3495 -0.0173862 0.0354042 -0.0122102 
152 1 1 19.7672 17.9046 30.6846 0.0847935 0.169439 -0.160986 
153 1 1 19.5284 17.5915 27.9234 0.00988633 -0.00710279 -0.102 
154 1 1 19.989 17.9622 27.0885 -0.211444 0.0320026 0.0703099 
155 1 1 19.8618 17.5851 28.8656 0.170833 -0.00927333 0.102896 
156 1 1 20.3805 18.4667 26.1667 0.0882772 0.0184808 0.0659365 
157 1 1 20.0464 19.333 25.0606 -0.0841472 0.0462971 0.0431897 
158 1 1 20.5112 18.9381 25.6197 0.137544 0.137014 -0.0551626 
159 1 1 18.7331 22.4885 23.8068 -0.0299396 0.000361182 -0.0161368 
160 1 1 18.5288 23.4416 23.884 0.0633966 0.111342 -0.228912 
161 1 1 18.4136 24.3186 24.1047 0.0608079 0.140118 -0.118624 
162 1 1 17.8669 24.8668 24.4229 -0.081172 -0.230317 0.0564154 
163 1 1 17.1423 26.0412 25.5198 0.141837 0.0392442 -0.0356398 
164 1 1 17.6682 25.7713 25.0666 -0.0606414 -0.134953 0.0192586 
165 1 1 16.7559 26.9641 26.6137 -0.00335279 0.104272 0.242712 
166 1 1 17.0874 26.6617 25.9878 -0.052558 0.0634896 -0.00667939 
167 1 1 20.0112 20.4861 24.3547 0.0269796 -0.0849928 0.231582 
168 1 1 20.3509 19.9358 24.7575 -0.0899153 -0.00432923 -0.120525 
169 1 1 19.3391 21.9579 23.929 0.0205032 -0.106388 -0.0790582 
170 1 1 19.982 21.2642 24.1208 -0.0805889 -0.0482633 -0.0900627 
171 1 1 17.0625 19.363 32.4364 -0.025826 0.105838 -0.0881187 
172 1 1 16.601 20.1256 32.7251 0.190688 0.0376622 -0.0187587 
173 1 1 15.5879 21.9512 32.7804 0.167271 -0.107332 0.00448589 
174 1 1 16.3852 20.8868 32.9963 -0.138028 -0.194802 -0.101597 
175 1 1 16.0794 21.5926 33.0492 0.0809691 -0.245806 0.121159 
176 1 1 15.6352 22.7299 32.858 -0.147859 0.0681696 -0.0545785 
177 1 1 15.0725 23.247 32.3298 0.0536162 -0.0669348 -0.215736 
178 1 1 15.2119 24.1418 32.1651 0.042048 -0.0762074 0.0183659 
179 1 1 14.8339 24.6041 31.3001 0.0550068 0.124332 -0.145053 
180 1 1 14.5954 24.9677 30.389 0.0104607 -0.0234621 0.0675545 
181 1 1 15.0051 25.6412 30.1751 -0.0951316 0.076798 -0.0888514 
182 1 1 15.114 25.9019 29.6096 -0.0302371 0.0614349 -0.00873895 
183 1 1 16.4585 27.138 27.5089 -0.00924186 0.0197792 -0.111071 
184 1 1 17.0726 27.5656 26.9014 -0.0271309 0.152349 0.042248 
185 1 1 15.5629 26.4827 28.8163 0.109551 0.0514643 -0.0511479 
186 1 1 16.1569 27.0933 28.3142 -0.100371 0.0309899 0.0684532 
187 1 1 18.5219 18.6176 32.0652 -0.17773 -0.167946 -0.016305 
188 1 1 18.0137 19.2652 32.6192 0.062338 0.0620428 0.10099 
189 1 1 20.2294 17.7585 29.7157 0.0963784 -0.0393893 -0.111047 
190 1 1 20.6189 18.1081 30.3421 0.162235 0.0144851 0.0239262 
191 1 1 19.2402 18.5323 31.9537 -0.0287112 0.071872 -0.0381411 
192 1 1 19.7851 18.3559 31.6206 0.197139 -0.0778243 0.0542907 
193 1 1 20.368 18.3001 31.0642 0.0119408 -0.0988896 -0.143664 
194 1 1 20.4405 17.9074 27.956 -0.00099014 -0.0171415 -0.0301923 
195 1 1 20.8389 18.2979 27.1041 0.0681763 -0.0203897 -0.0878079 
196 1 1 20.813 17.9998 28.7653 0.0664777 -0.139029 0.0077166 
197 1 1 21.2018 18.9437 26.2241 -0.0757192 -0.185698 0.100423 
198 1 1 20.9793 19.4827 25.4094 0.143532 -0.0198098 0.14309 
199 1 1 19.3782 22.8885 23.9092 -0.144953 -0.130084 0.131942 
200 1 1 19.4896 23.4819 23.9997 -0.119992 -0.131367 0.0253111 
201 1 1 19.1029 24.2146 24.0518 0.0335938 -0.0439041 -0.00890047 
202 1 1 18.8618 24.9603 24.2434 -0.0444479 0.227437 0.105655 
203 1 1 18.4147 25.8444 24.6939 -0.0466147 -0.0142821 -0.0332139 
204 1 1 17.9272 26.6202 25.3706 -0.0498998 -0.0357066 -0.105613 
205 1 1 17.5892 27.4553 26.167 0.00103212 0.192573 0.125708 
206 1 1 20.634 20.7753 24.432 0.00261724 0.100449 0.0426514 
207 1 1 21.1963 20.2768 25.0922 -0.109615 0.179872 -0.170767 
208 1 1 20.1827 22.2279 24.0378 0.183925 0.0255358 0.0705913 
209 1 1 20.8842 21.6083 24.418 0.103015 -0.0332923 0.0955644 
210 1 1 17.5938 20.0278 32.996 -0.0207395 -0.021153 0.212082 
211 1 1 17.3509 20.7092 33.3487 -0.171399 -0.110546 -0.0287866 
212 1 1 16.2686 22.2483 33.2421 -0.128266 -0.055156 -0.0632022 
213 1 1 16.9951 21.6294 33.5528 -0.0776891 0.0175588 -0.189979 
214 1 1 16.3322 23.1014 33.2989 -0.128663 -0.167078 -0.00151946 
215 1 1 15.687 23.6068 32.8135 0.0120348 0.139804 -0.104082 
216 1 1 17.634 28.2099 26.8239 -0.0325239 -0.00841637 -0.000257033 
217 1 1 17.0948 27.9747 27.5853 -0.0761052 -0.0458883 -0.212537 
218 1 1 15.9027 24.4158 32.6649 0.0873229 0.00548005 -0.160306 
219 1 1 15.5436 25.0208 31.9229 0.0484037 0.08188 -0.0102376 
220 1 1 15.1997 25.4593 31.0147 0.145779 0.136279 -0.0554461 
221 1 1 15.5016 26.1978 30.4191 -0.140104 -0.00150742 -0.154515 
222 1 1 15.7374 26.6531 29.7813 0.0407245 0.0935277 0.0680014 
223 1 1 16.6221 27.7491 28.3085 0.0659497 -0.20646 0.100853 
224 1 1 16.1914 27.3986 29.1104 0.0319344 -0.152249 0.119261 
225 1 1 18.467 19.9236 33.1746 -0.085247 0.0360058 -0.00095305 
226 1 1 19.1681 19.2288 32.6739 0.0482559 -0.0149905 0.197451 
227 1 1 21.155 18.1948 29.536 0.252638 -0.0669846 0.0844736 
228 1 1 21.3361 18.4597 30.2453 -0.0642332 -0.0227346 0.142065 
229 1 1 21.0132 18.5675 30.9424 0.063547 0.0045812 -0.0053108 
230 1 1 20.0141 18.9291 32.2589 0.0295879 0.0333322 0.180675 
231 1 1 20.5265 18.7109 31.6351 -0.0563702 0.00208046 -0.0910789 
232 1 1 21.312 18.3595 27.9872 0.0109877 -0.129081 0.109877 
233 1 1 21.7291 18.7484 27.2668 -0.115235 -0.0259038 -0.0496573 
234 1 1 21.7103 18.5633 28.7009 -0.22274 0.0630267 -0.0922779 
235 1 1 22.1064 19.4394 26.6939 -0.152234 0.0161106 0.0351685 
236 1 1 21.7056 19.7446 25.8745 0.0695016 0.131289 0.114907 
237 1 1 20.1512 23.083 24.1005 0.106592 -0.176331 0.0376392 
238 1 1 20.1179 24.0626 24.1172 0.115889 -0.0923785 0.148211 
239 1 1 19.6583 25.0981 24.2061 0.046541 -0.0280966 -0.0226401 
240 1 1 19.185 25.9204 24.4925 0.0474775 -0.0326756 0.125524 
241 1 1 18.8273 26.7172 24.9649 0.0297989 0.00653039 -0.0037137 
242 1 1 18.4857 27.5551 25.5521 -0.0613119 0.0813813 0.0988681 
243 1 1 18.2643 28.3603 26.1701 0.14618 0.030909 -0.019808 
244 1 1 21.4137 21.0745 24.9214 0.302721 0.0430899 0.166147 
245 1 1 21.9236 20.6552 25.5881 -0.0587152 0.131397 0.0781215 
246 1 1 20.9577 22.6713 24.4064 0.0321787 0.0177617 0.220204 
247 1 1 21.5762 22.1346 24.8399 0.0782412 0.0234687 -0.00979484 
248 1 1 18.1695 20.6911 33.4979 0.106111 0.031348 0.119556 
249 1 1 17.8276 21.2475 33.6648 -0.0741401 -0.0518595 -0.00588306 
250 1 1 17.0599 22.5433 33.6731 0.0394159 -0.0999779 -0.0955206 
251 1 1 17.8439 21.9402 33.8465 0.0561225 0.0738332 0.10484 
252 1 1 17.1138 23.4578 33.7147 -0.19712 -0.151796 0.0751598 
253 1 1 16.4848 23.9455 33.2495 0.0839037 -0.0596167 -0.172475 
254 1 1 18.1527 29.0138 26.9715 0.0902989 -0.0674039 0.0211319 
255 1 1 17.6282 28.7689 27.7031 0.0659467 0.0180358 0.0116577 
256 1 1 17.1303 28.5 28.4238 -0.0532254 -0.00162257 -0.165271 
257 1 1 16.6077 24.8328 33.1279 0.269387 0.0362076 -0.0205618 
258 1 1 16.1222 25.2543 32.4701 -0.0145461 0.100816 -0.00733061 
259 1 1 15.834 25.7122 31.7891 0.116873 0.147219 -0.0550987 
260 1 1 15.9435 26.4026 31.3218 -0.10542 0.0688785 -0.227738 
261 1 1 16.0402 26.9741 30.6176 -0.0347975 -0.0919946 0.055493 
262 1 1 16.2972 27.5411 29.9712 -0.111102 0.0405099 -0.0952866 
263 1 1 16.6897 28.1829 29.2956 -0.0466222 0.020801 -0.123606 
264 1 1 18.8306 20.5761 33.4578 -0.0326015 0.0510291 0.107212 
265 1 1 19.3993 20.1348 33.2179 0.0160008 0.0537157 -0.12218 
266 1 1 20.1386 19.657 32.8212 -0.112399 -0.173427 -0.041458 
267 1 1 22.0085 18.8229 29.6112 -0.261416 -0.171315 -0.131012 
268 1 1 21.7316 18.9082 30.6356 0.105513 -0.167962 -0.0939461 
269 1 1 21.3441 19.0981 31.4493 -0.00680435 -0.10689 -0.0245056 
270 1 1 20.8656 19.3993 32.2095 0.0214206 0.103424 0.0125618 
271 1 1 22.086 18.8401 28.048 0.138413 -0.0442142 -0.0119468 
272 1 1 22.2648 19.217 27.4249 0.05353 0.00281916 -0.0294263 
273 1 1 22.3248 19.02 28.7846 -0.00912247 0.00778364 -0.0268673 
274 1 1 22.6445 19.8165 27.2581 0.199142 -0.0492489 0.0115552 
275 1 1 22.4411 20.1769 26.3422 0.038239 -0.100267 -0.119244 
276 1 1 20.9833 23.5719 24.395 -0.0343497 -0.118392 -0.0992782 
277 1 1 21.1274 24.2705 24.4258 -0.0689351 -0.00740279 -0.0291718 
278 1 1 20.6709 25.0492 24.3558 -0.139232 -0.132995 0.00171787 
279 1 1 20.1965 25.8956 24.5089 0.0149619 0.156342 -0.114357 
280 1 1 19.7275 26.7071 24.7334 0.0398608 -0.259129 -0.448561 
281 1 1 19.3843 27.5327 25.1453 -0.0142356 -0.127091 0.0553146 
282 1 1 19.0231 28.3169 25.711 -0.127404 0.0601996 -0.159168 
283 1 1 18.8354 29.2315 26.3344 0.000777795 0.117345 0.100949 
284 1 1 22.0607 21.5066 25.3851 0.105695 -0.0973397 -0.00456123 
285 1 1 22.6312 21.1629 26.0683 0.0155085 -0.0704943 0.0983646 
286 1 1 21.658 23.0125 24.7732 -0.142072 0.0872738 0.114175 
287 1 1 22.2928 22.3214 25.3127 0.0104511 0.0485081 -0.0189394 
288 1 1 18.6965 21.4481 33.7396 0.0252129 0.225963 -0.0779947 
289 1 1 17.8025 22.8269 33.9401 0.0885452 -0.0463643 0.0333059 
290 1 1 18.3603 22.4076 33.9666 -0.212192 -0.00907149 0.176483 
291 1 1 18.6829 29.8199 27.1252 0.0422208 -0.189021 -0.140609 
292 1 1 17.9693 23.8637 33.9378 -0.0100656 0.0390379 0.0629012 
293 1 1 17.2892 24.3889 33.6772 0.0100373 0.118177 0.104437 
294 1 1 18.0762 29.5327 27.7607 0.232221 0.0528917 -0.0576474 
295 1 1 17.6087 29.2832 28.6468 -0.0537574 -0.096271 -0.12447 
296 1 1 17.2147 28.8912 29.3364 -0.320622 -0.0713501 -0.0205438 
297 1 1 17.3241 25.3084 33.5243 0.0681823 0.0959042 0.0129739 
298 1 1 16.7234 25.5358 32.8988 -0.0547501 0.233682 0.026294 
299 1 1 16.5115 26.212 32.2855 -0.120276 0.162406 -0.0777894 
300 1 1 16.5073 27.0821 31.5888 0.0655706 -0.061632 -0.130891 
301 1 1 16.6043 27.7206 30.9097 0.125455 0.136029 0.00124942 
302 1 1 16.8863 28.3628 30.1843 -0.0366323 0.00830714 0.0184867 
303 1 1 21.0015 20.133 32.7603 -0.119949 0.241168 -0.0758094 
304 1 1 19.4766 20.96 33.5158 0.0422702 -0.0064606 -0.333126 
305 1 1 20.2745 20.5378 33.2523 0.0205968 -0.153633 -0.121297 
306 1 1 22.6192 19.4071 29.2808 0.074747 -0.0395503 -0.127342 
307 1 1 22.3939 19.4187 30.2584 0.0474993 -0.00527121 0.0438575 
308 1 1 22.0263 19.4403 31.191 -0.126777 -0.0738187 -0.0605392 
309 1 1 21.6013 19.753 32.0291 -0.0513841 0.0610035 0.00874134 
310 1 1 22.7438 19.4807 28.2265 0.106669 -0.0181495 0.18842 
311 1 1 23.1001 20.2265 27.6855 0.0030161 0.123867 0.0252725 
312 1 1 23.0696 20.7039 26.9397 0.121634 0.121268 0.0248474 
313 1 1 21.8628 23.9503 24.7302 -0.0590116 0.0446851 0.0876372 
314 1 1 21.6223 24.8615 24.5791 -0.0860013 -0.0472143 -0.0101005 
315 1 1 21.1486 25.7628 24.5525 -0.0577532 0.0175732 -0.0933576 
316 1 1 20.7358 26.5985 24.6901 -0.128992 -0.00547546 0.0844557 
317 1 1 20.2473 27.4632 24.936 0.0503725 -0.0598028 0.0378783 
318 1 1 19.9598 28.3492 25.3266 -0.0416375 -0.102894 0.0417735 
319 1 1 19.6438 29.247 25.8322 -0.132096 -0.0272957 0.0356804 
320 1 1 19.4257 30.0057 26.4788 0.0901461 0.0999316 -0.0798587 
321 1 1 22.8391 22.003 25.8835 0.0633511 0.0882379 -0.179001 
322 1 1 23.1912 21.6364 26.3464 0.0318756 -0.0659949 0.166775 
323 1 1 22.4721 23.2065 25.1874 -0.0431799 0.0155023 0.0503678 
324 1 1 22.8443 22.6923 25.6298 0.0301339 -0.0305215 0.0247799 
325 1 1 19.6578 21.7109 33.7281 0.146169 -0.163456 0.00527681 
326 1 1 19.1817 22.2633 33.919 0.00871168 -0.125795 0.0821406 
327 1 1 18.7801 23.203 34.0176 0.121271 -0.0111103 -0.128872 
328 1 1 18.7359 24.1648 34.1552 0.02216 0.00124459 -0.0321299 
329 1 1 19.1896 30.6285 27.2389 0.0553326 0.0791507 0.0316059 
330 1 1 18.6172 30.3788 27.9719 0.0916675 0.0569106 0.0572244 
331 1 1 18.12 24.8043 33.9946 0.149468 -0.0187175 0.102649 
332 1 1 18.14 30.1274 28.7438 -0.135342 0.161348 0.0401694 
333 1 1 17.736 29.7058 29.5644 0.0250002 0.0590063 -0.185352 
334 1 1 17.487 29.1775 30.32 -0.149903 -0.0712832 0.0193237 
335 1 1 17.9637 25.6458 33.8086 -0.0393293 -0.0581273 0.234446 
336 1 1 17.3654 26.2201 33.1341 0.0023436 0.0629237 -0.0246991 
337 1 1 17.1134 27.0745 32.4366 -0.0672267 0.0278381 -0.0356108 
338 1 1 17.125 27.8226 31.8025 -0.207018 0.0460453 0.0373062 
339 1 1 17.2797 28.541 31.1253 0.0508161 -0.0618053 0.0701782 
340 1 1 23.0689 19.91 29.1008 0.069723 0.188003 -0.0793978 
341 1 1 21.8585 20.5233 32.4763 0.0693468 -0.0975524 0.0420033 
342 1 1 21.3186 20.947 33.0906 -0.00311458 -0.0448781 -0.0596204 
343 1 1 20.5437 21.4693 33.5619 -0.0110135 0.102515 -0.0771019 
344 1 1 22.9771 19.9296 29.891 0.0602266 -0.0214054 -0.0259857 
345 1 1 22.7412 20.0838 30.8739 0.0401019 -0.0409078 -0.215411 
346 1 1 22.329 20.1698 31.7228 0.0401111 -0.136458 0.0490898 
347 1 1 22.5933 20.8764 32.1721 0.0432099 0.0718271 0.148287 
348 1 1 23.3081 20.2723 28.4457 0.0544195 0.0266308 0.0514861 
349 1 1 23.5689 20.8771 27.7781 -0.0488953 -0.200972 0.00730452 
350 1 1 23.6897 21.6311 27.0784 0.0266439 0.123759 -0.0723259 
351 1 1 22.6764 23.9902 25.1214 -0.0137637 0.238458 -0.0265854 
352 1 1 22.4022 24.7075 24.8833 -0.0012038 0.0343258 -0.0024552 
353 1 1 22.1291 25.6435 24.7279 0.108166 0.120209 -0.0235306 
354 1 1 21.703 26.5384 24.709 0.0573763 -0.101786 0.0312595 
355 1 1 21.2851 27.5134 24.8774 0.0946677 -0.00842286 0.047573 
356 1 1 20.8266 28.2822 25.0996 0.131819 0.0104439 -0.150526 
357 1 1 20.5754 29.1819 25.3999 -0.138053 0.0131288 0.0837332 
358 1 1 20.1682 29.995 25.96 0.0179 0.0911785 0.050426 
359 1 1 19.9358 30.8828 26.6636 0.0894338 -0.0615126 0.186249 
360 1 1 23.5777 22.5094 26.3844 -0.0913142 0.0282025 -0.0869693 
361 1 1 23.4017 23.472 25.7597 -0.0203306 -0.0447323 -0.175784 
362 1 1 20.0808 22.3306 33.8865 0.0182133 -0.0628002 0.0669168 
363 1 1 19.7824 23.1142 34.0578 0.00490004 0.0113605 0.127241 
364 1 1 19.475 23.9988 34.2512 0.0242728 -0.0205394 -0.0745791 
365 1 1 18.9856 24.8659 34.2712 -0.105136 -0.00617774 0.079439 
366 1 1 19.8011 31.5342 27.4729 -0.0319711 0.109794 0.041659 
367 1 1 19.1604 31.2566 28.0668 -0.115959 -0.0546727 -0.0298843 
368 1 1 18.7106 30.9364 28.8973 -0.0219865 0.142668 0.0241569 
369 1 1 18.6118 25.6901 34.1481 0.0727753 -0.134632 -0.0271424 
370 1 1 18.3494 30.5142 29.7261 -0.124851 -0.0718793 -0.1301 
371 1 1 17.9811 29.9829 30.4748 0.0198258 0.139285 0.136885 
372 1 1 17.8496 29.3887 31.2413 0.0923525 0.0419613 0.145471 
373 1 1 18.2218 26.384 33.7659 0.037589 0.057174 0.0419938 
374 1 1 17.9118 27.1179 33.283 0.0335123 -0.0889048 -0.118665 
375 1 1 17.7447 27.8681 32.6291 0.0681931 -0.0723026 0.0119956 
376 1 1 17.7778 28.6523 31.9331 0.00154263 0.155742 0.00860057 
377 1 1 23.5601 20.5928 29.4479 0.083434 -0.00965854 0.0376079 
378 1 1 22.0794 21.387 32.8235 0.066871 -0.0137361 0.104399 
379 1 1 21.4726 21.604 33.3159 0.137947 0.0475034 -0.0762267 
380 1 1 21.1949 22.3792 33.7088 0.134798 -0.109786 0.0545197 
381 1 1 23.3749 20.725 30.4597 0.0269726 0.0586504 0.0493272 
382 1 1 23.0563 20.7317 31.3466 -0.0510617 0.0191653 0.0542142 
383 1 1 23.2753 21.4688 31.9147 -0.179848 0.0716605 0.00159464 
384 1 1 22.712 21.5878 32.4731 0.0983038 0.0583374 0.0120402 
385 1 1 23.9512 21.0492 28.578 -0.0283104 -0.0431813 -0.0194622 
386 1 1 24.1577 21.7231 27.8684 0.0200318 -0.011414 0.00542968 
387 1 1 24.2069 22.409 27.209 0.209338 -0.196855 0.0584082 
388 1 1 23.2641 24.5017 25.367 -0.182183 0.0179492 -0.0286226 
389 1 1 22.9847 25.4076 25.0982 -0.0184567 0.0444603 0.0932704 
390 1 1 22.6566 26.358 24.9714 0.113042 -0.00827896 -0.16999 
391 1 1 22.2655 27.2857 24.9097 -0.0852246 0.0385818 0.0339969 
392 1 1 21.8592 28.2754 24.9783 -0.0999991 -0.254707 -0.123791 
393 1 1 21.4833 29.1808 25.1569 0.1571 0.121871 0.10127 
394 1 1 21.0739 30.0271 25.5807 -0.111919 -0.128896 -0.0333687 
395 1 1 20.7008 30.8916 26.0832 0.119981 0.0194578 0.100228 
396 1 1 20.535 31.6751 26.7549 -0.142538 -0.0193098 -0.0754618 
397 1 1 24.1537 23.3061 26.5958 0.0054473 -0.0681897 -0.113321 
398 1 1 24.0521 24.2342 26.0023 -0.0346677 -0.0930434 0.0384067 
399 1 1 20.8157 23.0196 33.9937 0.082923 -0.0277752 0.0561519 
400 1 1 20.3805 23.8617 34.2981 -0.0516006 -0.14338 -0.159245 
401 1 1 19.978 24.7377 34.4586 0.120423 -0.0112027 -0.0114519 
402 1 1 20.352 32.3118 27.516 -0.104994 0.0683878 0.146133 
403 1 1 19.4989 25.5893 34.4923 0.0110125 -0.0940166 0.0912186 
404 1 1 19.7146 32.0539 28.271 0.129072 -0.00356462 0.0179231 
405 1 1 19.1913 31.7831 29.0471 0.0169494 -0.0687309 -0.136928 
406 1 1 18.8944 31.3736 29.779 -0.131109 0.153778 0.0119673 
407 1 1 19.1478 26.4139 34.2668 -0.101383 0.106243 -0.0127797 
408 1 1 18.5456 30.8045 30.609 -0.195713 -0.159309 0.104605 
409 1 1 18.3178 30.2377 31.3434 0.0124283 0.0830057 -0.00208635 
410 1 1 18.2459 29.5257 32.1249 -0.00657918 -0.0489317 0.106815 
411 1 1 18.7285 27.2151 33.9539 -0.108116 0.0911885 0.116815 
412 1 1 18.4467 27.9716 33.3917 0.17651 0.153786 -0.0389032 
413 1 1 18.2966 28.6616 32.8165 0.145968 -0.137802 0.0579201 
414 1 1 23.8631 21.2056 30.2496 0.0428601 -0.0951428 -0.228811 
415 1 1 24.1908 21.4057 29.5509 0.0853172 -0.0267797 0.067622 
416 1 1 22.2369 22.2398 33.2437 -0.0852087 -0.0343469 0.133657 
417 1 1 21.8005 23.126 33.6882 -0.102193 -0.114896 0.00513342 
418 1 1 23.7235 21.4078 31.1271 0.02935 -0.21833 -0.048174 
419 1 1 23.7295 22.0703 31.8275 -0.0338706 -0.0520431 -0.132201 
420 1 1 23.2238 22.393 32.5756 0.0819763 -0.0444688 -0.0789394 
421 1 1 24.4441 21.8198 28.7685 0.0317714 -0.0541489 0.113579 
422 1 1 24.6612 22.5221 28.0842 0.13473 0.233978 0.142805 
423 1 1 24.6965 23.2074 27.4801 -0.0496101 -0.00685408 -0.00454445 
424 1 1 23.7888 25.224 25.4717 -0.0273579 -0.0571221 -0.119629 
425 1 1 23.5482 26.2143 25.3141 -0.0770402 -0.035356 -0.0752985 
426 1 1 23.1954 27.1947 25.1566 0.134769 -0.0718007 0.0882318 
427 1 1 22.8306 28.124 25.0473 0.0147077 0.0288422 -0.120053 
428 1 1 22.4553 29.0459 25.0918 0.0719704 0.0365479 -0.0796116 
429 1 1 21.0971 32.4628 26.8415 0.228053 0.167264 0.102788 
430 1 1 22.0214 29.9979 25.2716 0.0418536 -0.0208156 -0.112669 
431 1 1 21.6504 30.8496 25.6333 -0.100013 0.0658698 0.00310846 
432 1 1 21.2603 31.7062 26.1318 0.0657302 0.115006 -0.0103195 
433 1 1 24.6357 24.065 26.744 0.0894939 -0.0595378 0.137196 
434 1 1 24.5658 25.0208 26.18 -0.00419941 0.0387425 0.0655442 
435 1 1 21.3393 23.7957 34.1584 -0.0338503 -0.0695224 0.0234149 
436 1 1 20.89 24.6868 34.4366 0.115641 -0.0226969 0.150536 
437 1 1 20.4743 25.533 34.5912 -0.134416 0.017229 0.0709042 
438 1 1 20.9464 33.0026 27.6317 0.11347 -0.136037 -0.0805605 
439 1 1 20.3722 32.8888 28.3943 0.0113825 0.00229796 0.0318426 
440 1 1 20.1374 26.3794 34.6131 0.112213 0.120931 -0.176484 
441 1 1 19.7997 32.5469 29.1814 0.0541637 -0.00467111 -0.0382757 
442 1 1 19.3686 32.2028 29.965 -0.0940337 -0.100218 -0.0123692 
443 1 1 19.1329 31.6433 30.7175 0.0360635 0.0522921 -0.140761 
444 1 1 19.6691 27.2447 34.4859 -0.276081 0.0716791 0.159851 
445 1 1 18.897 30.9836 31.4882 -0.250995 -0.000258424 0.085802 
446 1 1 18.7962 30.3616 32.2103 0.0923791 -0.0316669 -0.111891 
447 1 1 18.8276 29.4773 32.9882 -0.0573383 -0.112872 -0.117037 
448 1 1 19.1964 28.0637 34.0903 -0.0402432 0.0882162 0.113788 
449 1 1 18.9749 28.7756 33.6568 -0.0216705 -0.0678249 0.141537 
450 1 1 24.2865 21.7447 30.4717 -0.0198229 0.0625059 -0.154751 
451 1 1 24.6943 22.1029 29.7533 -0.052945 0.0312724 0.0810672 
452 1 1 22.8377 23.0873 33.2979 0.10315 0.0202005 -0.102116 
453 1 1 22.3358 23.8605 33.8211 -0.0454757 0.0270854 0.0826828 
454 1 1 24.3003 22.2675 31.2526 0.0342853 -0.016844 -0.180099 
455 1 1 24.0833 22.6866 32.0618 0.0249813 0.111365 0.0600157 
456 1 1 23.7601 23.242 32.8542 -0.136523 -0.0335964 0.108901 
457 1 1 24.9833 22.7241 28.9915 0.005889 0.059737 0.178658 
458 1 1 25.2382 23.3868 28.3014 0.07048 -0.0126339 -0.0505741 
459 1 1 25.2515 24.0931 27.479 -0.0592799 0.0467937 -0.0140129 
460 1 1 24.3507 25.9573 25.7651 -0.208598 -0.0211593 0.0914216 
461 1 1 24.068 26.9573 25.5235 0.00820494 -0.0564715 -0.0817557 
462 1 1 23.7665 27.9649 25.3897 0.0016884 -0.0702538 -0.148371 
463 1 1 23.4269 28.9728 25.2752 0.114295 0.0452054 -0.075089 
464 1 1 22.9738 29.9285 25.2425 0.0226501 -0.089522 -0.024107 
465 1 1 21.6897 33.154 27.0188 0.180361 -0.0578356 0.04729 
466 1 1 21.9009 32.4643 26.3249 0.0676212 0.00322824 0.0540515 
467 1 1 22.6022 30.8437 25.4389 0.0428511 0.179431 0.0288843 
468 1 1 22.2262 31.7153 25.7408 -0.0635776 0.0490593 -0.0692935 
469 1 1 25.2282 24.9276 26.8302 -0.103428 0.181468 0.101738 
470 1 1 25.1209 25.8625 26.3122 0.0853978 -0.175374 -0.000343352 
471 1 1 21.8798 24.7182 34.1846 0.0179616 0.123504 0.125152 
472 1 1 21.5109 25.4578 34.5529 0.118355 0.0695185 -0.009576 
473 1 1 21.1087 26.2949 34.7301 -0.0932103 -0.0932741 0.0880477 
474 1 1 21.5634 33.76 27.7869 -0.0132541 -0.0998937 -0.0819964 
475 1 1 20.9476 33.6865 28.4866 0.0139865 -0.0230667 0.0107295 