ITEM: TIMESTEP
100000000
ITEM: NUMBER OF ATOMS
51222
ITEM: BOX BOUNDS pp pp pp
0 62
0 62
0 62
ITEM: ATOMS id mol type x y z vx vy vz 
1 1 3 11.7115 0.414163 11.5351 0.149407 0.0598314 -0.0305719
2 1 1 12.3137 0.084241 10.9766 -0.216557 -0.0971953 0.0900538
3 1 1 12.5556 0.819565 11.4 0.0100327 -0.124521 -0.0280651
4 1 1 13.0077 0.440612 10.7069 -0.0458915 0.173741 -0.135516
5 1 3 11.9811 1.30183 11.8409 0.221123 0.0318442 -0.1084
6 1 1 13.249 1.35593 11.0081 -0.135836 0.083163 0.0487867
7 1 1 13.7591 1.0739 10.2423 0.0345067 -0.00102076 -0.156393
8 1 1 11.392 61.6956 11.0966 0.0692971 0.124643 0.037243
9 1 3 11.8498 61.2649 10.4415 -0.162861 -0.00850295 -0.144602
10 1 1 12.7179 61.5771 10.2391 -0.0256639 0.162468 -0.0767561
11 1 1 13.4057 0.134469 9.95042 -0.0558674 0.0789178 -0.0228518
12 1 1 14.0045 0.55851 9.50815 -0.0112134 0.110265 -0.0586174
13 1 3 10.8422 0.391157 11.6663 -0.016132 0.0602334 0.144089
14 1 1 11.2664 0.987757 11.8977 0.0773377 -0.129682 0.0620236
15 1 1 11.2427 1.71921 12.1043 0.0789792 -0.13466 -0.0191908
16 1 1 12.6704 1.79258 11.6209 -0.079045 -0.0770587 0.0125754
17 1 3 11.9368 2.32155 11.9972 -0.0744275 0.0509994 -0.208606
18 1 1 14.269 1.25541 9.56374 -0.00694227 0.31443 -0.00052287
19 1 1 14.2165 1.97094 9.9751 0.134969 0.0659298 -0.222125
20 1 1 13.7971 2.07187 10.595 -0.114163 0.0969633 -0.061697
21 1 3 13.3244 2.3741 11.2049 -0.0143734 -0.163989 -0.0499566
22 1 1 10.15 0.252945 11.5628 -0.221912 -0.0187737 -0.008396
23 1 1 10.6237 61.5734 10.9948 0.0609369 0.0256168 0.238935
24 1 1 10.9652 60.9947 10.3334 0.00189128 -0.0576256 0.0257521
25 1 3 11.5023 60.656 9.76992 0.00604758 0.0577745 -0.164696
26 1 1 12.3349 60.8938 9.54794 -0.0373104 0.0898685 0.0425279
27 1 1 13.1695 61.3775 9.34078 -0.0059862 0.153869 0.0172325
28 1 1 14.5406 1.02226 8.89727 -0.152844 -0.147593 -0.0357367
29 1 3 13.7291 61.7799 8.93236 -0.0838417 0.0518809 -0.0368325
30 1 1 14.2962 0.287609 8.52962 0.0426805 0.162272 0.00120772
31 1 1 10.3019 1.13489 12.0483 0.125763 0.0266071 0.0608029
32 1 1 10.5118 1.98969 12.1775 0.1182 -0.0165832 -0.0169217
33 1 3 11.0746 2.59226 12.1953 0.0881083 0.096672 0.0793438
34 1 1 12.5941 2.90703 11.6746 -0.0996602 -0.0662346 0.0351153
35 1 1 11.6801 3.25707 12.0325 0.0434752 0.0882416 0.0500712
36 1 1 14.6096 1.77906 9.13582 -0.0250554 0.00760889 -0.0437458
37 1 3 14.6129 2.6592 9.37121 -0.0936923 -0.108257 -0.0229792
38 1 1 14.8318 1.54518 8.26282 -0.111963 -0.0351417 -0.00842427
39 1 1 14.2079 2.85099 10.1134 0.154153 0.0162247 0.0424257
40 1 1 13.7788 3.10365 10.6745 -0.0280569 0.211749 0.128647
41 1 3 13.1194 3.48229 11.2233 0.0960255 -0.0217795 0.160707
42 1 1 9.61715 0.647884 11.74 -0.0374793 0.104921 -0.040321
43 1 1 9.37313 61.8994 11.1357 -0.0099264 0.0396875 -0.0658692
44 1 1 9.83295 61.3575 10.742 -0.0807959 -0.00987517 -0.193126
45 1 3 10.2799 60.9026 10.3694 0.0556572 0.183792 -0.0993307
46 1 1 10.5059 60.4789 9.82235 0.0280938 0.015714 -0.00242902
47 1 1 10.7845 60.0846 9.1427 -0.0628776 -0.074519 -0.109885
48 1 1 11.7463 60.2945 8.96978 -0.0971589 0.139092 -0.0595932
49 1 3 12.704 60.6278 8.70353 0.0266593 -0.123874 0.00531058
50 1 1 13.3837 61.0654 8.34676 0.107516 0.081632 0.0422417
51 1 1 14.6753 0.712439 8.01293 -0.0436656 0.0189286 0.0364206
52 1 1 13.9793 61.6008 7.96629 -0.0889732 -0.0782526 -0.00964017
53 1 3 14.3955 0.156295 7.78405 -0.041763 -0.035973 -0.0970163
54 1 1 9.38096 1.33918 11.9713 0.0701214 -0.0120836 0.180074
55 1 1 8.61187 0.865146 11.5197 0.114619 -0.0804674 -0.124893
56 1 1 9.76863 1.96885 12.1434 0.00589485 0.0571708 -0.00962741
57 1 3 10.1868 2.70222 12.2245 -0.0238327 -0.0750543 -0.0315671
58 1 1 8.88442 2.2389 12.0324 -0.107758 -0.0716074 -0.0683092
59 1 1 10.7165 3.4896 12.1586 -0.111526 -0.0129813 0.171853
60 1 1 12.2482 3.91055 11.6554 0.0938595 -0.20664 -0.134608
61 1 3 11.2982 4.15333 11.9369 0.00195566 -0.164983 -0.0829954
62 1 1 14.4734 3.29707 9.55768 -0.0201666 0.0225011 -0.012159
63 1 1 14.9098 2.34483 8.5563 0.00831208 -0.0370163 0.0487805
64 1 1 14.8468 3.35784 8.76063 -0.146242 0.0382728 -0.0901867
65 1 3 14.8166 1.3288 7.37669 0.0702919 0.0513225 0.0522682
66 1 1 14.9572 2.19817 7.70619 0.0494787 0.0649033 0.0352497
67 1 1 14.1931 3.71089 9.97949 -0.00589102 -0.211791 0.00573842
68 1 1 13.546 4.0909 10.6489 -0.0184792 0.166719 0.0994549
69 1 3 12.7598 4.41817 11.1721 0.162201 -0.0901817 -0.0152994
70 1 1 8.85308 0.184402 11.2087 0.049944 -0.119368 0.0711782
71 1 1 8.91781 61.5453 10.6799 0.0585081 0.115772 -0.149097
72 1 1 9.45141 60.676 10.0342 0.0248206 -0.0884177 -0.0151939
73 1 3 9.79375 60.1202 9.31172 -0.0892933 -0.00652129 0.00929912
74 1 1 10.1526 59.8114 8.57321 -0.0577521 0.00505794 0.115341
75 1 1 11.088 59.833 8.30613 0.00774246 -0.0438601 -0.073513
76 1 1 12.0434 60.1059 8.08513 -0.0849671 -0.0655798 0.0332515
77 1 3 12.8424 60.5264 7.7689 0.0329429 0.0372225 -0.140674
78 1 1 13.4911 61.0039 7.43528 -0.182752 0.221965 -0.0379357
79 1 1 14.5791 0.505258 7.19552 -0.168093 0.030962 -0.000597999
80 1 1 14.0658 61.5738 6.95216 -0.104913 0.0774042 0.110239
81 1 3 14.6563 1.11047 6.53784 0.05303 -0.0495838 0.172449
82 1 1 7.88084 0.566448 11.0036 -0.146335 0.141314 0.0575471
83 1 1 8.388 1.64929 11.7495 -0.0246079 0.0789423 0.102646
84 1 1 7.94609 1.18761 11.3599 0.0604524 -0.221135 0.0750489
85 1 3 9.19116 2.75027 12.1763 -0.137414 0.0294313 0.0162229
86 1 1 9.6829 3.58608 12.1694 0.0766412 -0.112047 -0.0370215
87 1 1 8.36293 2.71553 11.8923 0.176764 0.0075719 0.131895
88 1 1 10.262 4.36472 11.9436 0.032959 -0.127134 0.0365052
89 1 3 11.8868 4.78568 11.5676 -0.00701477 -0.243318 0.133197
90 1 1 10.8141 5.01087 11.728 0.061037 0.0374353 -0.0162804
91 1 1 14.4422 4.15257 9.15704 0.089674 -0.00259457 0.0149817
92 1 1 15.0137 3.04616 8.00362 0.0506172 -0.0612402 0.00203606
93 1 3 14.8384 4.08051 8.27667 0.180031 -0.143174 -0.0546286
94 1 1 14.8937 2.04503 6.85745 -0.0466487 -0.298856 0.13473
95 1 1 14.9593 2.93946 7.20692 0.103604 -0.00123926 -0.1125
96 1 1 13.9185 4.5686 9.93063 0.0189048 -0.0847808 -0.0417077
97 1 3 13.1554 4.92547 10.5319 0.080087 0.258789 0.063618
98 1 1 12.2759 5.37787 10.9774 0.0155983 0.0151536 -0.0569524
99 1 1 8.09117 61.904 10.6788 0.195293 0.0829336 0.0390236
100 1 1 8.37131 61.0458 10.0471 0.0715988 -0.025366 -0.0448602
101 1 3 8.68201 60.4361 9.30489 0.0797362 -0.108992 0.0983479
102 1 1 9.02622 60.0188 8.5427 0.0904856 0.076634 -0.0926993
103 1 1 10.4166 59.7291 7.82471 -0.137173 -0.0601928 0.0482805
104 1 1 9.61891 59.7271 7.86424 0.0465831 -0.0523404 -0.0419897
105 1 3 11.229 59.7868 7.28447 -0.0120086 0.098864 -0.0681714
106 1 1 12.224 60.1665 7.10089 0.0679503 -0.123023 -0.0510396
107 1 1 12.9723 60.6298 6.81601 -0.195781 -0.0264598 0.0924511
108 1 1 13.4894 61.0459 6.55135 0.249954 0.0939894 -0.0255743
109 1 3 14.6821 1.77484 5.95598 -0.0674912 0.227257 -0.069361
110 1 1 14.2988 0.211123 6.29073 -0.0998987 -0.0640034 0.0791558
111 1 1 13.7532 61.4602 5.97777 0.0448668 -0.102274 0.00904406
112 1 1 14.4626 0.97475 5.61123 -0.172961 0.0643782 0.0765614
113 1 3 7.31038 1.2765 10.9539 0.0134156 0.0281678 0.0915815
114 1 1 7.25121 0.407346 10.5416 0.0460758 0.140162 -0.116154
115 1 1 7.58225 2.197 11.3731 -0.0973983 0.00894538 0.0400242
116 1 1 6.79293 2.07041 10.7839 0.0668569 0.215381 0.149855
117 1 3 8.64304 3.55037 11.8995 0.0499687 0.0816935 0.0985415
118 1 1 9.21584 4.43557 11.8686 0.0932681 0.0141633 0.17765
119 1 1 7.72282 3.31456 11.4837 -0.128712 -0.0428925 -0.0480149
120 1 1 9.88666 5.23738 11.5775 -0.0916694 -0.0164229 -0.100706
121 1 3 11.3887 5.66141 11.2336 0.0738801 -0.116656 -0.0401992
122 1 1 10.4073 5.76498 11.2613 0.0544041 0.0848922 0.0299328
123 1 1 14.0909 5.0836 9.06715 0.0109424 0.134434 0.0339841
124 1 1 14.5053 4.72477 8.47697 -0.0377961 0.122046 0.2676
125 1 3 14.9027 3.84049 7.56273 -0.314146 0.0707357 -0.031116
126 1 1 14.6319 4.76239 7.74879 0.0520308 -0.153331 0.0510975
127 1 1 14.9084 2.64157 6.19614 0.048772 -0.00699462 -0.113146
128 1 1 14.9443 3.44796 6.52327 0.00383873 0.103476 -0.126562
129 1 3 14.9133 2.49625 5.38355 -0.109048 0.0996874 -0.0631394
130 1 1 11.8659 6.14617 10.6485 0.166616 0.170261 -0.0919149
131 1 1 13.6095 5.35778 9.72751 0.0355047 -0.0588482 -0.0465143
132 1 1 12.642 6.02431 10.1341 0.0440155 -0.139652 -0.0583893
133 1 3 7.51934 61.6017 9.96044 0.240471 -0.105626 -0.104219
134 1 1 7.81183 60.8865 9.32609 0.0638044 -0.0196402 -0.116694
135 1 1 8.85476 59.8621 7.65579 -0.133642 -0.134934 -0.0311968
136 1 1 8.11675 60.4052 8.66 0.121818 -0.0216761 0.0768904
137 1 3 8.26014 60.0797 7.93018 0.215413 0.0273831 -0.108896
138 1 1 10.1786 59.6863 7.14545 -0.0998512 0.113319 0.0454836
139 1 1 9.26439 59.7315 7.05777 0.105764 -0.156401 -0.00268793
140 1 1 10.7194 59.7245 6.41778 0.109677 0.0278254 -0.372659
141 1 3 11.7533 60.0166 6.36342 -0.0204136 -0.189444 0.196106
142 1 1 12.4951 60.3578 6.29615 0.155728 0.0349571 -0.113928
143 1 1 13.0328 60.8473 5.81388 0.279663 -0.1592 -0.0652338
144 1 1 14.6204 1.59146 5.0017 -0.0447063 -0.0678951 0.128395
145 1 3 13.9938 0.110141 5.46051 -0.0357968 0.172688 0.128952
146 1 1 13.5778 61.5099 5.37623 0.0147394 0.088756 0.00500141
147 1 1 14.1705 0.735929 4.69779 -0.120693 0.169308 -0.231875
148 1 1 6.64643 1.21031 10.4492 0.134823 -0.0621003 -0.0289129
149 1 3 6.66289 0.297111 9.8843 -0.0691477 -0.0824196 -0.00292034
150 1 1 7.02695 3.12241 11.0223 0.0978457 0.258418 0.0631818
151 1 1 6.18129 1.80519 10.2592 -0.00747226 0.128082 -0.0545878
152 1 1 6.32454 2.79586 10.367 0.181427 0.0963338 -0.00855616
153 1 3 8.19338 4.28499 11.5764 -0.0176747 -0.125324 -0.0328675
154 1 1 8.79788 5.11585 11.4933 0.17757 -0.0325594 -0.0136929
155 1 1 7.34403 4.09289 11.1219 0.0532322 -0.1877 0.105298
156 1 1 9.50826 5.85653 11.1791 0.0783568 0.0249081 0.0586646
157 1 3 10.9162 6.32323 10.8178 0.170928 0.13925 -0.0643697
158 1 1 10.1089 6.29431 10.8679 -0.0709598 -0.0456695 0.00832036
159 1 1 13.8123 5.71442 8.91327 -0.025112 -0.0449895 -0.0283858
160 1 1 14.2363 5.4964 8.13452 0.104022 -0.0138555 -0.0991687
161 1 3 14.5751 5.2738 7.07043 0.0478057 -0.0221034 0.129116
162 1 1 14.8462 4.39712 6.80199 -0.10102 -0.0873792 -0.225299
163 1 1 14.9807 3.32312 5.57894 -0.0488481 -0.0733959 0.168799
164 1 1 14.9326 3.91877 5.90988 0.00980323 -0.31508 -0.00227799
165 1 3 14.8661 2.31582 4.4598 -0.0867186 0.0490938 -0.0273587
166 1 1 14.9803 3.04588 4.83027 0.0578847 0.120994 -0.120186
167 1 1 12.0328 6.52857 9.99972 -0.110315 0.072407 -0.120555
168 1 1 11.3048 6.6824 10.2966 0.028993 -0.162835 0.0130415
169 1 3 13.2825 6.14363 9.21085 -0.0153114 0.0331411 0.0552561
170 1 1 12.5591 6.61881 9.34121 0.027341 -0.0549731 0.0461525
171 1 1 6.92636 61.4499 9.1971 0.169581 -0.248971 -0.0174023
172 1 1 7.16642 60.9458 8.50339 0.282117 0.0539296 -0.0629242
173 1 3 8.46682 59.9215 7.07026 0.103202 -0.0294119 0.0691633
174 1 1 7.42319 60.5334 7.89122 -0.102185 -0.0041892 -0.0964928
175 1 1 7.83369 60.2029 7.26075 -0.142666 0.0898593 0.0460242
176 1 1 8.82254 59.8891 6.35419 0.0424294 0.00671324 -0.00224779
177 1 3 9.7749 59.7027 6.37696 -0.129034 0.19276 -0.0579504
178 1 1 10.2717 59.8817 5.66274 0.0111029 0.0364583 0.0591734
179 1 1 11.2467 60.0252 5.63828 0.0684602 -0.108065 -0.119736
180 1 1 12.143 60.3507 5.66961 -0.0839869 -0.0882924 0.0563569
181 1 3 12.4326 60.7742 5.02102 0.09977 -0.0656636 -0.0279256
182 1 1 12.9047 61.1874 4.88357 0.0282159 -0.0343602 0.028072
183 1 1 14.4921 1.4374 4.04289 0.0777743 0.194261 -0.0596701
184 1 1 14.8128 2.29695 3.74748 0.0160592 0.0831766 0.16312
185 1 3 13.5627 61.9197 4.61607 0.128017 0.162878 -0.0586308
186 1 1 14.0714 0.737532 4.00946 -0.0499081 0.00274994 0.12561
187 1 1 6.06277 0.97088 9.7643 -0.00491742 0.00641267 -0.0300041
188 1 1 6.19833 0.134221 9.07286 0.0200439 -0.258189 0.151118
189 1 3 6.75058 3.79422 10.576 0.105582 -0.102319 0.174197
190 1 1 6.21197 3.74339 9.99695 -0.0659652 0.00076235 -0.109141
191 1 1 5.7164 1.66729 9.59628 0.0858955 0.384065 -0.199142
192 1 1 5.76889 2.34667 9.77262 0.0747154 -0.0750101 -0.0420365
193 1 3 5.81492 3.19181 9.66994 -0.173669 -0.0769699 -0.00971297
194 1 1 7.8233 5.05989 11.0738 -0.208149 0.105798 0.152363
195 1 1 8.47328 5.81915 10.8852 -0.0144593 0.156666 0.170807
196 1 1 7.08765 4.85936 10.5782 -0.00970938 0.117767 -0.113551
197 1 3 9.28121 6.53998 10.5236 -0.0217306 0.0335968 -0.166837
198 1 1 10.3002 6.84581 10.2878 -0.00887351 -0.00216429 0.195905
199 1 1 13.6722 6.14617 8.34461 0.0866594 0.156538 -0.0831405
200 1 1 13.8036 6.24768 7.635 0.0600215 0.0698876 0.166825
201 1 3 14.2879 5.84088 7.0796 0.069915 -0.014205 -0.00984235
202 1 1 14.6752 5.38319 6.37904 0.0979054 0.290836 -0.129897
203 1 1 14.8978 4.79557 5.69441 0.0381075 0.1006 -0.117015
204 1 1 15.0079 4.04939 4.86567 -0.0725647 -0.183124 0.0246148
205 1 3 15.0232 3.29357 3.89456 -0.172555 -0.0946307 -0.0359161
206 1 1 11.6833 6.981 9.54631 -0.120459 0.144499 0.125102
207 1 1 10.7731 7.21092 9.6439 0.0485682 -0.192353 0.0931251
208 1 1 12.8798 6.69178 8.54263 -0.00830526 0.0125665 0.0148052
209 1 3 11.9902 7.1739 8.77706 -0.101498 -0.120753 0.137849
210 1 1 6.43194 61.565 8.33776 -0.0271402 -0.00774986 -0.24686
211 1 1 6.67392 61.0985 7.64376 0.124963 0.0275812 0.0146744
212 1 1 7.93535 60.2277 6.46403 0.054202 -0.0736484 0.0132546
213 1 3 7.10773 60.6641 6.87734 -0.0528663 0.045833 -0.0173588
214 1 1 8.2281 60.2881 5.73449 -0.00188041 -0.0507921 0.0631311
215 1 1 9.23969 59.9523 5.65486 -0.00384848 0.0133501 -0.0947891
216 1 1 14.7941 2.72963 3.07626 0.122641 0.00783721 0.147147
217 1 3 14.5308 1.83189 3.11057 -0.0754255 -0.00392426 -0.023227
218 1 1 9.67481 60.2095 4.86906 0.00948575 0.00467745 -0.00829427
219 1 1 10.5643 60.2326 4.87979 -0.165501 5.97699e-06 -0.0785596
220 1 1 11.6248 60.4616 4.83978 -0.07531 0.0213602 0.214537
221 1 3 12.2809 60.9253 4.27601 0.0155234 0.0870736 0.0848064
222 1 1 12.8108 61.501 3.86374 0.15591 0.0241845 0.286858
223 1 1 14.0938 1.00248 3.25361 0.0355899 0.0267884 -0.0792534
224 1 1 13.5275 0.236559 3.60822 -0.0125421 -0.116922 0.0304169
225 1 3 5.84982 0.327783 8.13412 -0.118306 -0.0111243 0.110245
226 1 1 5.6225 1.0558 8.83108 0.025579 0.0673663 -0.00186835
227 1 1 6.5509 4.66451 9.98357 0.205581 -0.0829043 0.0387527
228 1 1 6.0771 4.34842 9.49625 -0.137373 -0.0674142 -0.183903
229 1 3 5.72149 3.70832 9.26306 0.0654629 0.0479545 -0.0375267
230 1 1 5.43658 2.09038 9.01893 -0.118063 0.119502 -0.0423226
231 1 1 5.53136 2.9072 9.17006 0.0378537 -0.00805292 0.100495
232 1 1 7.57719 5.66445 10.4142 -0.0409119 -0.0578615 -0.0795281
233 1 3 8.11632 6.36898 10.127 -0.169101 -0.0140915 0.00133006
234 1 1 6.96933 5.50148 9.7983 -0.100373 0.0164765 0.14484
235 1 1 8.6201 6.98756 9.68595 -0.0209276 -0.00673485 -0.179263
236 1 1 9.71848 7.17889 9.75334 -0.147553 0.0844489 -0.171764
237 1 3 13.2279 6.69532 7.77309 0.0856735 -0.133167 0.0579816
238 1 1 13.6853 6.66967 6.84063 -0.0876217 0.022575 -0.0539496
239 1 1 14.2346 6.09403 6.17696 -0.1324 0.0443955 -0.154534
240 1 1 14.6186 5.62171 5.45922 -0.00920069 -0.215471 -0.0589287
241 1 3 14.853 5.11484 4.67704 0.120012 -0.148929 -0.0105037
242 1 1 14.9734 4.39669 3.88111 0.0792875 -0.0459972 0.0178926
243 1 1 14.942 3.72682 3.03008 0.0586559 -0.0509855 -0.002388
244 1 1 11.0898 7.45558 8.922 0.0466218 -0.0320839 0.0900491
245 1 3 10.1641 7.51853 9.03769 -0.0366705 -0.117384 0.00325551
246 1 1 12.4255 7.2201 7.86423 -0.266509 -0.0253579 -0.0236346
247 1 1 11.5647 7.57294 8.1159 0.0897181 -0.104473 -0.0741815
248 1 1 6.07545 61.744 7.49108 0.106333 0.256171 0.151455
249 1 3 6.35521 61.3398 6.95564 0.0246883 0.102372 -0.143009
250 1 1 7.28775 60.736 5.95698 0.0624564 0.0776414 -0.0789065
251 1 1 6.58982 61.2062 6.25966 0.049714 -0.04084 -0.0998134
252 1 1 7.83544 60.7426 5.0066 -0.0525122 0.0978984 -0.0936814
253 1 3 8.73225 60.3228 4.97033 -0.0207412 0.214226 0.184195
254 1 1 14.7578 3.11722 2.21399 -0.0732322 0.0917731 0.0504111
255 1 1 14.4903 2.2327 2.30358 0.100236 0.0660524 -0.155415
256 1 1 14.0793 1.35818 2.39164 -0.00450969 -0.0400155 -0.093312
257 1 3 9.12359 60.5351 4.20583 -0.067525 -0.112383 0.00321281
258 1 1 10.0131 60.5 4.0918 -0.0167096 -0.0816996 -0.029788
259 1 1 10.7746 60.4822 4.24552 0.0052197 -0.0784296 0.0689823
260 1 1 11.4636 60.8443 3.77544 0.111024 -0.172325 -0.125829
261 1 3 12.1249 61.3242 3.2433 -0.0746218 -0.0166437 -0.0571854
262 1 1 12.9659 61.889 2.98534 -0.05081 -0.101881 -0.0141072
263 1 1 13.5761 0.548287 2.70003 0.190838 0.0438112 -0.0924786
264 1 1 5.72622 0.249835 7.37337 -0.172686 -0.181612 0.0600669
265 1 3 5.40748 0.989694 7.69268 -0.0177443 0.182155 -0.213921
266 1 1 5.2608 1.84319 8.14186 0.151954 -0.0478502 0.0870881
267 1 1 6.36708 5.24524 9.12396 0.0138414 -0.17961 -0.0525147
268 1 1 5.75973 4.34215 8.78052 0.0386652 -0.00326861 0.148027
269 1 3 5.38114 3.50256 8.65316 0.0490093 -0.0593231 -0.00870299
270 1 1 5.20875 2.74019 8.44148 -0.0551385 -0.0424719 -0.0390711
271 1 1 7.41613 6.23099 9.651 -0.110574 0.102981 0.0049005
272 1 1 7.91161 6.75315 9.442 0.0120787 -0.0392624 -0.0539706
273 1 3 6.89952 6.03248 9.19741 0.0294774 0.163226 0.050253
274 1 1 8.1694 7.11543 8.96117 0.00970213 -0.122655 0.0500467
275 1 1 9.09371 7.43983 9.05139 -0.0318471 0.0488516 -0.0380598
276 1 1 12.7867 7.31975 7.00983 0.141082 -0.0581169 0.0442002
277 1 3 13.1549 7.28041 6.27699 0.0877757 -0.076243 -0.00843141
278 1 1 13.6772 6.96611 5.73549 -0.0413211 -0.0647045 0.0838174
279 1 1 14.1705 6.48219 5.30517 0.0186306 -0.0149182 0.143325
280 1 1 14.5837 5.97667 4.4851 0.144855 -0.0116226 0.0888658
281 1 3 14.8153 5.37084 3.74201 0.11573 0.0541815 -0.0297589
282 1 1 14.931 4.67735 2.94794 -0.101574 -0.11505 -0.0332955
283 1 1 14.8902 4.13304 2.0665 0.0868431 -0.0381328 0.01181
284 1 1 10.5647 7.79021 8.24548 0.0587979 -0.135508 -0.00126475
285 1 3 9.71956 7.76553 8.25859 -0.0280819 0.194502 0.168809
286 1 1 11.9516 7.64499 7.23343 -0.0374886 0.131145 -0.0240519
287 1 1 11.0525 7.96816 7.44286 0.00543449 0.0870561 0.138377
288 1 1 5.96789 61.9571 6.47915 0.0399831 0.0462415 -0.028181
289 1 3 6.97693 61.1466 5.34075 -0.136318 -0.0113702 0.0562857
290 1 1 6.44382 61.5353 5.71505 0.103544 0.0186015 0.0496841
291 1 1 14.7542 3.51265 1.29586 0.139018 0.0884306 0.0450007
292 1 1 7.34292 61.2065 4.43925 0.0730344 -0.0224195 0.157255
293 1 3 8.2596 60.8006 4.23554 0.14959 0.148571 -0.00362058
294 1 1 14.4863 2.57111 1.41427 0.106524 -0.138851 -0.0449162
295 1 1 14.1097 1.64893 1.47079 0.0887469 0.119256 -0.102815
296 1 1 13.5697 0.894599 1.73816 0.0387873 0.123674 0.0134858
297 1 3 8.81149 60.9359 3.44272 0.00314389 -0.219191 -0.145533
298 1 1 9.53988 60.665 3.60686 -0.0551932 0.203077 0.108749
299 1 1 10.5342 60.8196 3.27812 -0.0860988 0.167327 0.0454697
300 1 1 11.3319 61.1776 2.76935 0.103602 -0.0125474 0.0469156
301 1 3 12.2101 61.6375 2.36467 -0.139965 -0.0409982 -0.0980217
302 1 1 12.9726 0.200916 2.0653 0.033243 0.174996 0.109352
303 1 1 5.06859 2.50189 7.53341 0.162864 0.126782 0.00681665
304 1 1 5.56181 0.709125 6.84514 0.0161036 -0.101727 -0.0726533
305 1 3 5.20187 1.61159 7.15979 0.0386548 -0.0865658 0.186301
306 1 1 6.62646 5.96668 8.52753 -0.038907 0.0551336 -0.055224
307 1 1 6.01639 5.14377 8.26589 -0.0133911 0.163106 0.129355
308 1 1 5.55276 4.27476 8.01518 0.0341285 0.130721 -0.0808986
309 1 3 5.18236 3.40428 7.76895 -0.0763306 0.00541913 0.0775723
310 1 1 7.33255 6.63684 8.72492 -0.11073 0.0350724 -0.0313197
311 1 1 7.88277 7.23162 8.17092 -0.0150923 -0.0160488 0.00717648
312 1 1 8.77303 7.62029 8.10647 -0.00839621 -0.236097 0.0750386
313 1 3 12.3587 7.77134 6.33918 -0.0221952 -0.0556356 -0.115311
314 1 1 12.9657 7.64971 5.59268 0.00252145 -0.0905693 0.0515961
315 1 1 13.6349 7.24458 4.93636 -0.0395875 -0.0264448 -0.0954117
316 1 1 14.1369 6.79772 4.29767 0.0242902 -0.131068 0.0525817
317 1 3 14.4722 6.31328 3.46351 -0.0466142 -0.148594 -0.0944119
318 1 1 14.7739 5.66251 2.75582 -0.107523 0.0236403 -0.0533324
319 1 1 14.8992 5.05028 1.90792 -0.187208 0.102207 -0.0678923
320 1 1 14.8823 4.43556 1.07232 0.0457799 -0.0120627 0.0343391
321 1 3 10.1467 8.07603 7.49662 0.00476481 0.0417464 -0.0393565
322 1 1 9.49348 7.97007 7.55349 0.0735926 -0.00129928 -0.123725
323 1 1 11.4405 8.05726 6.59019 0.233192 -0.0335129 -0.00485035
324 1 1 10.6678 8.16213 6.9321 0.0645288 -0.02497 -0.105207
325 1 3 5.59253 0.713431 6.07019 -0.0698618 -0.00913258 0.075431
326 1 1 5.927 0.29342 5.56097 -0.0129227 0.0467597 0.0374472
327 1 1 6.5432 61.7361 4.8955 0.0710176 0.10556 -0.115099
328 1 1 7.03539 61.5825 3.9168 0.262155 -0.0729698 -0.118522
329 1 3 14.7615 3.83158 0.277722 -0.183215 0.0807747 -0.0757872
330 1 1 14.5151 3.00619 0.547328 -0.100333 -0.0578683 -0.0694951
331 1 1 7.85578 61.2834 3.52244 -0.183338 -0.0229686 -0.0999742
332 1 1 14.1226 2.11496 0.577285 0.150953 -0.0437782 0.177442
333 1 3 13.5483 1.26737 0.770737 0.0199266 -0.0502152 0.0582593
334 1 1 12.9511 0.49311 1.13849 0.0607886 -0.0871819 -0.0886428
335 1 1 8.48187 61.2943 2.82177 0.179527 -0.152344 -0.0344413
336 1 1 9.45484 60.9981 2.73012 -0.0387211 -0.28231 -0.00405517
337 1 3 10.4699 61.2297 2.26032 0.0135105 0.0522499 0.0715225
338 1 1 11.404 61.4964 1.85747 -0.122971 -0.0394063 -0.13216
339 1 1 12.1908 61.8702 1.4182 -0.0730285 0.0193442 -0.0586877
340 1 1 6.83881 6.39529 7.994 0.0972582 0.101706 -0.0280207
341 1 3 5.13123 3.27157 6.91927 0.070823 0.134303 -0.072635
342 1 1 5.08969 2.44779 6.58147 0.0180612 0.00230734 -0.080074
343 1 1 5.32188 1.54937 6.22902 0.175164 -0.0765064 0.178177
344 1 1 6.35255 5.79331 7.72265 -0.144534 0.0370756 -0.0545254
345 1 3 5.81992 5.02859 7.40021 0.114894 -0.0464199 -0.102817
346 1 1 5.39698 4.13831 7.17569 0.0142178 0.219549 -0.0300976
347 1 1 5.15736 3.96311 6.21723 -0.0391827 0.0330568 0.115682
348 1 1 7.39106 6.94325 7.77639 -0.00359875 0.0428906 -0.0658324
349 1 3 8.00298 7.45215 7.43366 -0.103438 -0.0670218 -0.0704297
350 1 1 8.76509 7.95709 6.99565 -0.12022 -0.041718 0.070836
351 1 1 11.6568 8.16067 5.85669 0.0192917 -0.0229788 0.109959
352 1 1 12.2707 8.04051 5.28885 -0.143568 -0.110292 -0.0567864
353 1 3 12.8952 7.88013 4.66823 0.0557302 -0.0426759 0.00838612
354 1 1 13.5683 7.58135 4.0536 0.220334 0.128949 0.172197
355 1 1 14.0193 7.14449 3.28883 -0.0935604 -0.0556076 -0.128203
356 1 1 14.4368 6.5684 2.52325 -0.0444925 0.116098 -0.0744097
357 1 3 14.7002 6.05393 1.78734 0.0928229 0.037477 0.0242605
358 1 1 14.8247 5.3961 0.967697 0.045642 -0.259104 0.0256036
359 1 1 14.825 4.83228 0.0811019 0.272807 0.12882 0.134363
360 1 1 9.71679 8.27572 6.55458 -0.0233603 0.0881254 0.101342
361 1 3 10.7363 8.44984 5.97728 0.0117071 0.164388 0.00725266
362 1 1 5.57105 1.05786 5.35689 0.0654222 -0.0892546 -0.0746267
363 1 1 5.93911 0.595485 4.60205 -0.00835376 0.0749179 0.0323208
364 1 1 6.44521 0.140837 3.80267 -0.118524 -0.00906622 -0.0593957
365 1 3 7.17095 61.8662 3.22497 -0.0577053 0.0952949 0.0688187
366 1 1 14.679 4.18355 61.3234 -0.112047 -0.105793 0.000797754
367 1 1 14.4916 3.23887 61.4915 0.0388989 0.0875115 -0.0319532
368 1 1 14.0767 2.40019 61.6614 -0.205539 -0.0139168 0.147155
369 1 3 7.82574 61.7367 2.52529 0.00776779 0.174647 -0.0870659
370 1 1 13.511 1.56144 61.9185 0.00221044 0.264947 0.0222106
371 1 1 12.8659 0.853044 0.179679 0.151749 0.0089724 0.00877978
372 1 1 12.2311 0.224953 0.4806 0.0333489 -0.253967 -0.0417276
373 1 3 8.67906 61.4915 2.17192 0.00559872 -0.0534217 0.0875313
374 1 1 9.54865 61.4922 1.79919 0.188926 0.0266088 -0.0785971
375 1 1 10.4313 61.5128 1.44475 0.0913848 0.198021 0.0846814
376 1 1 11.3225 61.746 0.900668 0.0352313 -0.0892609 -0.0750863
377 1 3 6.70772 6.43999 7.11993 -0.00692133 0.0133656 -0.09064
378 1 1 5.05783 3.19972 5.97674 0.0946263 -0.017666 -0.042767
379 1 1 5.16197 2.46708 5.79086 -0.15642 -0.0280426 -0.0448986
380 1 1 5.29399 1.9973 5.04169 0.222482 0.113605 -0.0787001
381 1 3 5.98448 5.61948 6.83709 0.0685039 -0.11186 -0.037119
382 1 1 5.512 4.8216 6.51159 -0.102145 0.0830277 -0.179107
383 1 1 5.24391 4.52181 5.6627 0.216605 0.0601928 -0.0462021
384 1 1 5.09159 3.74218 5.54382 -0.00534416 -0.00130212 -0.0459061
385 1 3 7.3886 7.16696 6.81624 0.0273417 0.141267 0.00646387
386 1 1 8.05767 7.81713 6.48969 0.0315309 -0.085233 -0.040833
387 1 1 8.77673 8.2452 6.0618 -0.0668914 0.0553514 0.00679511
388 1 1 11.4176 8.46107 5.14831 -0.00781094 0.0629245 -0.0300451
389 1 3 12.1012 8.32352 4.43506 0.0592576 -0.079585 -0.137357
390 1 1 12.8767 8.14189 3.84358 -0.00461521 0.0410618 0.101058
391 1 1 13.5791 7.90985 3.12939 -0.0337277 0.0341507 -0.115065
392 1 1 14.0229 7.45662 2.35602 0.085143 0.148467 -0.128934
393 1 3 14.3698 6.91831 1.59346 -0.238934 -0.193861 -0.0418602
394 1 1 14.5992 6.26299 0.809808 -0.05208 0.0676448 0.0496826
395 1 1 14.737 5.71852 61.9171 -0.021754 0.144414 0.166711
396 1 1 14.683 5.1534 61.0582 0.0266511 -0.167905 0.0379726
397 1 3 9.75105 8.58726 5.55467 -0.0470394 0.0562169 0.0178586
398 1 1 10.537 8.78759 4.92684 -0.0107042 -0.120043 0.0555672
399 1 1 5.51876 1.41407 4.43501 -0.0970359 -0.0650426 -0.0414699
400 1 1 5.97296 0.885677 3.69411 0.113007 0.112252 0.0464519
401 1 3 6.4677 0.546708 2.95434 0.053813 0.160999 -0.159721
402 1 1 14.5627 4.52687 60.3764 -0.0138403 0.103108 -0.119845
403 1 1 7.14757 0.208358 2.29754 0.0336155 -0.12216 -0.243833
404 1 1 14.4548 3.61213 60.5319 -0.0420806 0.0628118 0.122776
405 1 3 14.1179 2.7333 60.634 0.0496606 0.167254 0.0371642
406 1 1 13.5103 1.91114 60.9966 -0.00701814 -0.00760978 -0.0350178
407 1 1 7.94815 61.9412 1.63522 0.0286667 -0.00493178 0.0779472
408 1 1 12.8169 1.22645 61.2851 0.189582 -0.0908192 0.101398
409 1 3 12.1503 0.642918 61.6012 0.108025 0.00235007 0.00651971
410 1 1 11.3777 0.164658 62.0005 -0.0354833 -0.060489 0.0898683
411 1 1 8.7779 61.8251 1.26434 0.149655 -0.100381 0.0852177
412 1 1 9.59819 61.7826 0.784316 0.0778495 -0.141866 0.0027289
413 1 3 10.4969 61.9048 0.397044 -0.0312542 0.138241 0.00398672
414 1 1 6.12938 6.16437 6.28816 -0.0916204 -0.10787 -0.0823955
415 1 1 6.6695 6.79856 6.11206 -0.149111 0.0953053 0.0716169
416 1 1 5.11467 3.00117 4.92516 -0.0672713 -0.0610187 -0.0138659
417 1 3 5.2749 2.34654 4.14399 0.0503012 -0.0173192 0.140725
418 1 1 5.59595 5.50207 5.9132 -0.0741431 -0.10931 -0.0399259
419 1 1 5.295 5.07099 5.17833 -0.233248 0.0733684 -0.0346181
420 1 1 5.07408 4.24885 4.73585 -0.034078 -0.0736458 -0.0558225
421 1 3 7.26141 7.46673 5.90589 -0.0486677 0.0433726 -0.00872829
422 1 1 7.95113 8.01752 5.49772 0.0204107 0.153866 -0.0144222
423 1 1 8.82623 8.48449 5.15739 0.0883327 -0.148114 -0.0674308
424 1 1 11.346 8.81426 4.24479 0.0414159 0.17694 -0.119743
425 1 3 12.1446 8.62757 3.54414 0.0917127 -0.0431509 0.00729832
426 1 1 12.924 8.49397 2.86317 0.0670196 -0.189413 -0.00895591
427 1 1 13.5428 8.25284 2.14971 -0.0279757 -0.0945469 0.190696
428 1 1 14.069 7.81979 1.3644 0.0325606 -0.0718185 -0.0181778
429 1 3 14.6118 5.47795 60.1144 -0.127722 0.0982094 -0.0172966
430 1 1 14.3238 7.23471 0.65742 -0.122981 0.0337552 -0.000118907
431 1 1 14.4753 6.71242 61.8536 -0.0864069 -0.0380472 0.0550736
432 1 1 14.5712 6.07983 61.0282 0.0869825 -0.0893509 0.0968938
433 1 3 9.62578 8.91049 4.64724 -0.0919406 -0.108257 -0.0564334
434 1 1 10.4078 9.11343 3.99055 0.0520703 -0.0240786 0.0848086
435 1 1 5.57888 1.74258 3.48589 0.116269 0.0494166 0.00221241
436 1 1 5.99359 1.26828 2.75011 0.145528 -0.000391821 0.0264049
437 1 3 6.44564 0.824897 2.08769 -0.00700329 0.0502247 -0.095906
438 1 1 14.4874 4.92261 59.3604 0.173444 0.0965674 -0.016806
439 1 1 14.3433 3.95283 59.521 -0.0343301 0.0198977 -0.0397895
440 1 1 7.09662 0.462077 1.41138 -0.0218436 -0.0179983 0.142889
441 1 3 13.9728 3.03607 59.6656 -0.080281 0.0155092 -0.0104955
442 1 1 13.4642 2.30128 59.9685 -0.145222 -0.0307782 -0.136369
443 1 1 12.7816 1.65105 60.3369 0.138602 -0.014577 -0.0940098
444 1 1 7.9355 0.272317 0.725958 0.100924 -0.0447131 -0.0692339
445 1 3 12.0384 0.969678 60.5643 0.0543467 0.0842459 -0.08557
446 1 1 11.3129 0.519107 61.1103 0.159671 0.147817 -0.107574
447 1 1 10.3734 0.235671 61.4333 -0.00444254 0.0183578 0.117052
448 1 1 8.72087 0.13221 0.300031 -0.109721 0.108826 0.0293137
449 1 3 9.60673 0.0823133 61.8926 0.183787 0.0271446 -0.21312
450 1 1 6.0058 6.33123 5.60107 -0.118643 -0.120186 0.0809735
451 1 1 6.56096 7.07947 5.25319 -0.0614909 0.102485 0.137916
452 1 1 5.10686 3.37514 3.97598 -0.00704364 0.155282 0.0090719
453 1 3 5.26519 2.7288 3.24905 -0.066752 -0.0813089 0.119991
454 1 1 5.56109 5.79182 4.96338 -0.021365 0.096964 -0.0628272
455 1 1 5.2246 5.14726 4.35046 -0.0201602 -0.0547895 -0.0519665
456 1 1 5.06576 4.40304 3.71513 -0.0681388 -0.099127 -0.160577
457 1 3 7.20887 7.72824 5.00053 0.00650028 0.0688704 0.000601383
458 1 1 8.01765 8.30218 4.6277 0.0137143 -0.10934 0.0534773
459 1 1 8.71303 8.72172 4.23114 -0.00531641 -0.0279046 0.204693
460 1 1 11.3351 9.1434 3.37491 -0.13517 -0.17948 -0.145001
461 1 3 12.1069 9.05386 2.66143 -0.0312113 0.0592676 -0.0203319
462 1 1 12.8045 8.93188 1.9688 0.0313961 -0.0678173 -0.00351801
463 1 1 13.4573 8.69363 1.22206 0.131445 0.154643 -0.170051
464 1 1 13.8912 8.17117 0.522235 -0.123017 -0.0150163 -0.121578
465 1 3 14.5092 5.80431 59.1973 -0.063255 0.0582597 -0.0815599
466 1 1 14.5296 6.41979 60.0819 0.0200468 0.0423095 -0.0754071
467 1 1 14.167 7.62058 61.7648 -0.00253465 -0.111086 0.0383496
468 1 1 14.3718 7.07907 60.9115 0.0685942 -0.0114759 -0.0898281
469 1 3 9.527 9.14084 3.6402 0.111474 0.0785799 0.0703132
470 1 1 10.4587 9.37914 3.10828 -0.183747 -0.0393195 0.0483684
471 1 1 5.47671 2.08207 2.58141 -0.0167427 -0.0144794 0.0137125
472 1 1 5.88109 1.55849 1.81992 -0.0539937 0.240288 0.00534396
473 1 3 6.4501 1.0649 1.09261 0.0307869 -0.152605 -0.0485332
474 1 1 14.4504 5.21161 58.4488 -0.166267 -0.0757033 0.0817916
475 1 1 14.231 4.19295 58.5734 -0.185972 0.0292837 0.137851
476 1 1 13.8219 3.33956 58.7464 -0.0414147 -0.132681 0.102039
477 1 3 7.08988 0.763633 0.405348 -0.162499 -0.0840611 0.0413289
478 1 1 13.4386 2.60098 59.0583 0.0148623 0.0347433 0.0306235
479 1 1 12.7207 1.8719 59.3411 -0.126828 0.0641651 0.0288341
480 1 1 12.0245 1.33382 59.669 0.00501561 -0.00444514 0.0122933