ITEM: TIMESTEP
100000000
ITEM: NUMBER OF ATOMS
61833
ITEM: BOX BOUNDS pp pp pp
0 62
0 62
0 62
ITEM: ATOMS id mol type x y z vx vy vz 
1 1 3 47.923 9.5897 15.4705 -0.0646877 0.0509732 -0.0123454
2 1 1 47.6239 10.4003 15.5883 -0.0502087 0.00178145 0.118323
3 1 1 47.6816 9.68468 16.3255 -0.0132866 -0.0780029 -0.0665155
4 1 1 47.2807 10.5158 16.4596 -0.0486784 -0.127056 -0.00660189
5 1 3 47.8821 8.81765 15.9358 0.0516149 -0.100009 -0.00315979
6 1 1 47.2368 9.64701 17.0984 0.0175451 -0.136834 0.184253
7 1 1 46.7531 10.4998 17.2479 -0.0447197 -0.0291981 -0.0363196
8 1 1 47.8245 10.0364 14.6895 -0.0402817 -0.0330262 -0.161823
9 1 3 47.4701 10.9042 14.7193 0.0688232 -0.0358117 -0.0251142
10 1 1 47.2092 11.159 15.5508 -0.111919 -0.0432215 0.0333377
11 1 1 46.8297 11.1969 16.4673 0.0457202 -0.0686328 -0.0804062
12 1 1 46.2395 11.347 17.1394 0.0540419 0.0427924 -0.0431871
13 1 3 48.0277 9.12294 14.6011 -0.0954389 -0.0763701 0.133232
14 1 1 48.0341 8.75855 15.2476 0.00280548 0.0889685 0.064006
15 1 1 48.0028 8.03971 15.4878 -0.00395881 -0.0346765 0.00758686
16 1 1 47.6164 8.86778 16.8052 -0.0935445 -0.129336 -0.165317
17 1 3 47.8026 7.97426 16.3851 0.0422139 -0.0014583 0.0970134
18 1 1 46.0602 10.9884 17.7052 -0.0684672 -0.0425284 0.202712
19 1 1 46.2122 10.2297 17.9677 0.190495 0.0268415 -0.0537017
20 1 1 46.7501 9.65509 17.8292 -0.00731213 0.0930604 -0.348203
21 1 3 47.1704 8.82754 17.6823 0.196949 0.0638873 -0.0304937
22 1 1 47.9782 8.93352 13.8819 -0.0856897 0.00102736 -0.123728
23 1 1 47.7976 9.91041 13.8893 -0.0976098 -0.181726 0.0496592
24 1 1 47.4438 10.7133 13.862 -0.0429082 0.00787014 -0.0379522
25 1 3 47.063 11.386 13.898 0.0628173 -0.0276498 0.163564
26 1 1 46.874 11.6712 14.8205 0.133722 -0.0233328 0.0410054
27 1 1 46.5437 11.9141 15.6687 0.00234851 -0.071865 -0.0989391
28 1 1 45.4896 11.5689 17.6289 0.0285696 0.00965817 0.0561628
29 1 3 46.0961 11.9677 16.3692 0.0508017 -0.108227 0.115029
30 1 1 45.472 12.0567 17.0012 0.0667349 -0.107041 -0.049184
31 1 1 48.0757 8.16233 14.5191 -0.00707738 -0.00591327 -0.0254334
32 1 1 47.9928 7.38979 15.1463 0.20012 -0.129799 -0.110955
33 1 3 47.8094 7.25873 15.8718 0.0563984 -0.00718851 -0.177289
34 1 1 47.4603 7.89468 17.2621 -0.0149915 -0.24163 -0.0476405
35 1 1 47.5291 7.06251 16.6943 0.164778 0.00362964 -0.0967304
36 1 1 45.531 10.8187 18.1459 0.0281734 -0.14069 -0.149122
37 1 3 45.4601 10.0873 18.5363 -0.0019995 0.098535 0.165363
38 1 1 44.9367 11.3827 18.1937 -0.0309069 -0.0332949 0.0957266
39 1 1 46.0355 9.45781 18.5047 -0.108173 -0.12505 0.13845
40 1 1 46.4617 8.83788 18.361 -0.00349968 0.139803 -0.0361588
41 1 3 46.8701 7.93392 18.0501 -0.199811 -0.0569531 -0.0595656
42 1 1 47.9538 8.30592 13.5597 0.00190088 0.160779 -0.0629671
43 1 1 47.7414 8.98182 12.8774 0.0451352 0.0251379 0.0855288
44 1 1 47.6835 9.71449 13.0328 0.0158372 -0.13907 0.0372485
45 1 3 47.4988 10.3594 13.2345 0.117142 0.059301 0.0314714
46 1 1 47.1199 11.008 13.0438 -0.034534 -0.033616 -0.00151933
47 1 1 46.5885 11.6013 12.9596 0.118884 -0.0223468 0.0579783
48 1 1 46.4586 12.055 13.9266 0.15676 0.0929002 -0.0365221
49 1 3 46.1982 12.3883 14.8114 -0.0496098 -0.087691 0.069944
50 1 1 45.7462 12.5916 15.6657 0.0894949 0.0610954 0.132652
51 1 1 44.7567 12.0601 17.5986 -0.00834979 0.0441091 -0.0214264
52 1 1 45.3053 12.5977 16.4225 -0.135038 0.102638 0.00157543
53 1 3 44.8259 12.4507 16.9908 -0.0115959 0.0801135 0.117895
54 1 1 47.9509 7.6109 13.7429 -0.0406154 -0.0131282 -0.158067
55 1 1 47.6195 7.66015 12.8061 -0.0158771 0.196853 -0.0233848
56 1 1 47.9475 7.21114 14.3877 0.0613136 -0.0106235 0.197287
57 1 3 47.8249 6.66836 15.1887 0.0697478 0.140342 -0.0803028
58 1 1 47.6049 6.5835 13.7333 -0.0521762 -0.0426361 0.033949
59 1 1 47.526 6.30796 16.0546 0.146257 -0.122555 0.0266346
60 1 1 47.0468 7.02285 17.572 -0.0497761 -0.18892 -0.0745993
61 1 3 47.0949 6.20694 16.8133 0.0887042 0.126092 0.123132
62 1 1 45.3719 9.38931 18.8328 -0.0630055 -0.0496361 -0.0394306
63 1 1 44.7543 10.6753 18.6172 -0.105626 0.0286381 0.114964
64 1 1 44.6775 9.8359 18.9295 0.165169 -0.0193799 -0.104682
65 1 3 44.1713 11.9366 17.9821 0.090846 0.0492624 0.0142898
66 1 1 44.1013 11.1626 18.499 0.0696685 0.0087059 0.0711622
67 1 1 45.6532 8.7532 18.8331 0.10178 -0.0871928 -0.175212
68 1 1 46.0637 7.90597 18.6011 -0.207138 -0.0973231 -0.0164118
69 1 3 46.3066 7.05951 18.2033 0.0677673 -0.0970049 0.165507
70 1 1 47.6126 8.44182 12.5782 -0.145564 0.105338 0.151684
71 1 1 47.3522 9.24445 12.2369 -0.128411 0.225772 -0.163675
72 1 1 47.1027 10.2471 12.3254 0.073071 0.0324928 -0.194984
73 1 3 46.5252 11.1365 12.2177 -0.108279 -0.0392702 0.128344
74 1 1 45.9117 11.8461 12.2874 0.0866889 0.031135 -0.157022
75 1 1 45.9602 12.2968 13.1555 0.0221781 0.0594886 -0.0883565
76 1 1 45.6091 12.7101 14.0025 0.151565 -0.0345209 -0.0766508
77 1 3 45.3289 12.8684 14.8633 0.0244269 -0.122237 -0.0128544
78 1 1 44.8677 13.007 15.6429 -0.0826555 0.162802 -0.121589
79 1 1 44.1171 12.5245 17.291 -0.15375 -0.0720548 0.00473431
80 1 1 44.3019 12.972 16.3989 0.0100892 -0.0761521 -0.0307127
81 1 3 43.3408 12.3505 17.658 -0.123687 -0.0548226 -0.0133393
82 1 1 47.1666 7.74518 11.9818 0.0696599 -0.00683336 0.0991224
83 1 1 47.4989 6.8354 12.9745 -0.0511853 0.0676969 -0.108149
84 1 1 47.2531 7.15471 12.383 0.032842 0.0190082 -0.096365
85 1 3 47.6824 6.32787 14.3545 -0.038571 -0.0209755 0.0936802
86 1 1 47.43 5.78376 15.186 -0.0643163 -0.0147247 0.0659053
87 1 1 47.3061 5.97973 13.6121 0.046297 0.112228 0.089633
88 1 1 47.0361 5.50714 16.0676 0.156647 -0.066672 -0.0869572
89 1 3 46.4598 6.22431 17.6502 -0.115786 0.0188327 -0.0217384
90 1 1 46.558 5.41234 16.8271 -0.0357447 -0.145486 0.0381493
91 1 1 44.7007 8.82455 19.087 -0.00291606 -0.0419403 -0.0833329
92 1 1 44.0029 10.3259 18.8922 -0.0255666 -0.0890922 0.131732
93 1 3 43.9777 9.52583 19.1369 -0.166126 -0.143509 0.0484107
94 1 1 43.2555 11.6464 18.2833 -0.0266773 0.139175 -0.0633046
95 1 1 43.3102 10.8362 18.7845 0.032824 -0.0664266 0.060508
96 1 1 45.1877 7.9036 18.9901 0.116505 -0.172418 0.066648
97 1 3 45.5169 7.0621 18.6718 -0.121943 -0.162126 0.0280467
98 1 1 45.6969 6.16839 18.1598 -0.0458117 -0.0585429 -0.072183
99 1 1 47.0366 8.55789 11.7955 0.231122 0.0120827 0.0173585
100 1 1 46.7097 9.38473 11.4443 -0.0198743 0.0152215 0.303655
101 1 3 46.3733 10.3442 11.4731 0.204481 -0.0111625 -0.00965317
102 1 1 45.8764 11.1591 11.4913 -0.00996535 0.0630064 -0.158183
103 1 1 45.4918 12.4026 12.5159 0.163066 0.117396 0.110389
104 1 1 45.3607 11.9201 11.7826 0.197002 0.0993146 0.102051
105 1 3 44.9861 12.8698 13.0784 -0.120636 0.0648589 0.00591297
106 1 1 44.7119 13.0878 14.1524 0.0198551 0.042941 0.074059
107 1 1 44.3799 13.1734 14.978 -0.0939226 -0.0328816 -0.100937
108 1 1 44.0763 13.1804 15.5706 0.138299 -0.0684023 -0.240597
109 1 3 42.5359 12.0348 17.9346 0.111312 -0.194331 0.19109
110 1 1 43.3469 12.8825 16.8635 0.191041 -0.120902 -0.0958683
111 1 1 43.4614 13.1721 15.9377 -0.162138 0.085684 0.10828
112 1 1 42.5227 12.6163 17.2428 -0.0412455 0.147889 0.044465
113 1 3 46.7676 6.88993 11.8226 -0.0844948 0.0106243 0.00422182
114 1 1 46.6751 7.76876 11.4111 0.00726476 0.161181 -0.0311286
115 1 1 46.9095 6.09066 12.527 0.0271846 -0.181834 0.0523674
116 1 1 46.3167 6.12934 11.7057 0.0997801 -0.109283 0.0646591
117 1 3 47.133 5.48564 14.2445 0.0873733 -0.00100023 0.155305
118 1 1 46.8031 4.95521 15.1135 0.07187 -0.0874544 0.022286
119 1 1 46.6732 5.30582 13.2661 0.169335 -0.193621 0.0854145
120 1 1 46.3785 4.74573 16.0215 -0.0264059 -0.0166505 -0.0362532
121 1 3 45.8222 5.42923 17.4966 -0.181926 -0.0328693 0.0302845
122 1 1 45.8616 4.78439 16.6016 0.12375 -0.0592134 -0.0388128
123 1 1 44.158 7.9787 19.2093 -0.0217304 0.0608826 -0.0910454
124 1 1 43.8774 8.66676 19.2895 -0.0841724 -0.048802 0.0420213
125 1 3 43.2066 9.96164 19.0948 -0.17524 -0.0816363 -0.0458986
126 1 1 43.2392 9.05072 19.3062 -0.111444 -0.105808 -0.0165874
127 1 1 42.5089 11.3161 18.5639 -0.0543668 0.0362886 -0.0418961
128 1 1 42.3764 10.498 18.9399 0.149652 0.100834 0.0744587
129 1 3 41.7216 11.7076 18.2397 -0.06708 0.102464 -0.107615
130 1 1 45.1359 5.40739 18.0249 0.0717792 0.255964 -0.1574
131 1 1 44.6038 7.23629 19.0953 -0.00928746 0.00876057 -0.101746
132 1 1 44.7871 6.01414 18.5838 -0.0686456 0.0655795 -0.00553913
133 1 3 46.3811 8.53639 11.0181 0.151938 0.104102 -0.140706
134 1 1 46.1593 9.52725 10.8969 -0.06775 -0.00410219 0.11698
135 1 1 45.0246 11.6021 11.1531 -0.0881317 -0.0206807 -0.134098
136 1 1 45.7607 10.369 10.9397 0.0568706 -0.0735961 -0.145226
137 1 3 45.19 10.9556 10.8303 0.0130048 -0.147289 0.0763883
138 1 1 44.8144 12.4925 12.1358 0.0629601 0.0211758 0.068406
139 1 1 44.6104 12.0262 11.3482 -0.0411402 0.0461799 0.0770416
140 1 1 44.1529 12.9096 12.4216 -0.275591 -0.111226 -0.0332853
141 1 3 44.0821 13.2039 13.5052 -0.129134 -0.0702795 0.093547
142 1 1 44.0176 13.2646 14.2432 0.0473275 0.119328 -0.130864
143 1 1 43.4034 13.3788 14.9911 0.0568459 -0.144464 -0.0982565
144 1 1 41.6743 12.3407 17.5887 -0.0178736 -0.101929 0.0836216
145 1 3 42.6632 13.0866 16.4198 -0.00100865 -0.304042 0.161929
146 1 1 42.8344 13.2636 15.7324 -0.0136663 0.174299 0.069716
147 1 1 41.7298 12.8326 16.7645 -0.00853735 0.0244477 0.0916996
148 1 1 46.1422 6.92307 11.1305 -0.0753426 -0.11608 0.0384614
149 1 3 45.9902 7.75524 10.7006 -0.111523 0.186999 0.00289665
150 1 1 46.1671 5.24385 12.4444 0.00837283 -0.127902 -0.0655996
151 1 1 45.6433 6.22874 11.0548 -0.0427159 0.0200472 -0.278433
152 1 1 45.5925 5.32877 11.6476 0.120972 -0.151259 -0.00924028
153 1 3 46.4756 4.79463 14.1309 0.00768193 0.00810996 0.0692456
154 1 1 46.0672 4.43208 15.0671 0.0383982 -0.10508 -0.0519394
155 1 1 46.0203 4.68662 13.227 0.0178412 0.163636 0.0131675
156 1 1 45.5448 4.30208 15.935 -0.02467 0.0119047 0.013537
157 1 3 45.1891 4.78604 17.2396 -0.0382749 -0.215443 -0.113236
158 1 1 45.1951 4.34224 16.5569 -0.0322606 0.033108 -0.0346116
159 1 1 43.8161 7.32278 19.2098 -0.114672 -0.0407285 0.0886737
160 1 1 43.1564 8.11413 19.2937 -0.00455089 0.0479457 -0.0166714
161 1 3 42.4193 8.74673 19.4252 -0.0133301 0.132237 -0.102329
162 1 1 42.2696 9.54447 19.2252 -0.148544 -0.018649 -0.073988
163 1 1 41.6865 10.9473 18.7203 0.110977 -0.0949433 -0.0300698
164 1 1 41.6737 10.2805 18.9942 0.0383381 -0.0531177 -0.00623897
165 1 3 40.9142 11.9802 18.0166 -0.0483987 -0.126946 0.073143
166 1 1 41.157 11.4091 18.432 -0.143863 -0.0613597 -0.000828939
167 1 1 44.3653 5.23063 18.2196 0.0796729 0.0480946 0.0579866
168 1 1 44.5684 4.80654 17.6379 0.0401475 0.0575886 0.0485143
169 1 3 43.9995 6.50091 19.0419 -0.0269337 -0.049876 -0.00792219
170 1 1 43.7962 5.68128 18.6699 0.266004 -0.0138841 -0.0171281
171 1 1 45.6976 8.71489 10.414 0.13103 0.00302083 -0.185025
172 1 1 45.3118 9.4901 10.3423 0.272723 0.0212679 -0.0733116
173 1 3 44.495 11.485 10.8043 0.06283 0.0655955 -0.0301545
174 1 1 44.8835 10.1745 10.2887 0.0420187 -0.0818768 0.0171629
175 1 1 44.5289 10.8432 10.4822 0.126488 0.0172814 0.073264
176 1 1 43.774 11.869 10.9243 -0.0298746 0.0209252 -0.0715838
177 1 3 44.0308 12.4854 11.6514 -0.0594094 0.0214382 -0.123042
178 1 1 43.2487 12.8605 12.0906 0.0363341 -0.0904608 0.0609308
179 1 1 43.3903 13.1278 12.9576 0.109464 0.0432311 0.0630465
180 1 1 43.3156 13.3714 14.0225 -0.17643 0.0742268 0.125021
181 1 3 42.5971 13.4316 14.3283 -0.00767425 0.101291 -0.0925772
182 1 1 42.4028 13.3929 15.0397 0.0365171 0.0172278 0.0185525
183 1 1 40.8375 12.6766 17.2344 0.0521968 -0.108553 0.0157374
184 1 1 40.2483 12.273 17.8123 0.0134182 0.089577 0.0134089
185 1 3 41.8456 13.2507 15.8283 0.0565355 -0.0379794 0.113863
186 1 1 41.0773 13.0616 16.4797 -0.106484 0.117128 -0.029567
187 1 1 45.4602 6.93464 10.498 0.0855623 -0.0119731 -0.106002
188 1 1 45.211 7.8244 10.0802 -0.0829559 0.0146936 -0.00138834
189 1 3 45.5277 4.69623 12.4796 -0.0300959 -0.0449445 0.0265751
190 1 1 44.8874 4.70518 11.928 -0.100378 0.0369587 -0.101273
191 1 1 45.006 6.3558 10.5146 -0.0254264 -0.270741 -0.273344
192 1 1 45.0299 5.72795 10.913 -0.140011 0.102382 0.0079014
193 1 3 44.8236 5.15377 11.3404 0.120214 0.031739 -0.0747626
194 1 1 45.6679 4.16322 14.1508 0.152025 -0.0739669 -0.068379
195 1 1 45.2568 3.88098 14.9887 0.0725057 -0.119444 -0.00273692
196 1 1 45.1681 4.14159 13.3639 0.126557 -0.0132011 0.202098
197 1 3 44.6474 3.83229 16.0246 -0.20464 0.101339 -0.0370557
198 1 1 44.4509 4.21978 16.9023 0.0245503 0.130603 0.0490959
199 1 1 43.2227 7.09393 19.1713 0.182451 0.028571 -0.134581
200 1 1 42.5539 7.40262 19.2914 -0.175914 -0.0857733 0.097802
201 1 3 42.1883 8.0977 19.4221 0.0204507 -0.0424124 -0.0915625
202 1 1 41.6598 8.76511 19.4498 0.148372 0.14518 -0.0438734
203 1 1 41.2001 9.5943 19.3202 0.0573968 -0.0146392 -0.135948
204 1 1 40.7897 10.6349 18.9278 -0.061941 0.00682796 -0.0475165
205 1 3 40.1283 11.5925 18.4305 0.039843 0.042472 -0.0201378
206 1 1 43.7559 4.97255 18.0716 0.0782243 0.073826 -0.0791217
207 1 1 43.7327 4.33003 17.3868 -0.0352065 -0.12492 -0.0629474
208 1 1 43.0902 6.18054 18.9116 -0.102165 -0.0241681 0.0805857
209 1 3 43.0405 5.36076 18.4362 0.107325 0.0397207 -0.190194
210 1 1 44.8497 8.71459 9.8585 -0.00156529 -0.109763 -0.206907
211 1 1 44.463 9.43497 9.87276 0.0570286 -0.00434389 -0.052197
212 1 1 43.8186 11.1666 10.3923 -0.0960263 0.0297796 0.0490269
213 1 3 43.9288 10.2533 9.97103 0.0198671 -0.101568 -0.0495277
214 1 1 43.063 11.5204 10.5589 0.0947264 -0.11789 -0.0328308
215 1 1 43.1642 12.2474 11.3119 0.18945 -0.0213241 0.0340636
216 1 1 39.3912 12.1652 18.0389 0.00893444 -0.0120388 0.0554108
217 1 3 39.82 12.751 17.3476 -0.0862188 0.0227807 -0.0257
218 1 1 42.4254 12.5989 11.6446 -0.155928 -0.0612097 0.0674773
219 1 1 42.4834 13.02 12.4679 -0.0831986 0.0786453 -0.00425276
220 1 1 42.5124 13.2894 13.4282 -0.0591155 -0.122595 -0.0435455
221 1 3 41.8775 13.4642 14.327 0.0364341 0.125104 -0.124224
222 1 1 41.3746 13.4819 15.0477 -0.0614698 -0.0417834 0.0408032
223 1 1 40.3429 13.1541 16.5936 0.165394 0.124156 0.174866
224 1 1 40.6689 13.393 15.8062 -0.0279001 0.108296 -0.163105
225 1 3 44.3211 7.99288 9.61617 -0.16336 0.068617 0.0931315
226 1 1 44.5013 6.94683 9.93766 -0.122008 -0.0983895 0.0618586
227 1 1 44.6384 4.21663 12.6332 0.124033 0.126421 -0.0897339
228 1 1 44.2386 4.34872 12.0995 -0.203352 0.128387 0.0872425
229 1 3 44.2173 4.76584 11.4951 -0.0342312 0.0918497 -0.120213
230 1 1 44.347 6.01566 10.34 0.0222709 -0.0461254 -0.010953
231 1 1 44.2582 5.29886 10.8959 0.0018556 0.0210698 0.0669768
232 1 1 44.7521 3.71325 14.0646 0.0531477 0.0439372 -0.17679
233 1 3 44.4068 3.54827 14.872 -0.0708461 -0.100517 0.101816
234 1 1 44.2083 3.76332 13.3223 -0.0186316 0.00976329 0.0708961
235 1 1 43.7167 3.47361 15.5213 -0.200523 0.0755224 -0.103345
236 1 1 43.6605 3.83707 16.5114 0.00559356 -0.153851 0.0378514
237 1 3 42.4495 6.72736 19.0857 -0.181439 0.0232474 -0.157227
238 1 1 41.6425 7.18602 19.2972 0.0960275 0.0852583 -0.0056049
239 1 1 41.0856 8.03054 19.4161 -0.0399306 -0.0721655 -0.0267274
240 1 1 40.6299 8.92524 19.4962 -0.0980115 0.0583057 0.124842
241 1 3 40.2619 9.84353 19.3846 -0.0291929 0.00931657 0.00975527
242 1 1 39.7395 10.7198 18.9791 -0.250994 -0.0343445 0.158987
243 1 1 39.0516 11.3782 18.7018 -0.0437878 0.0465245 0.139511
244 1 1 43.0172 4.64032 17.7784 -0.122563 0.214659 0.0531516
245 1 3 42.9299 4.02601 16.9479 0.0810981 0.100211 -0.0310778
246 1 1 42.2256 5.77035 18.7107 -0.037849 -0.044035 0.0771019
247 1 1 42.2043 5.01347 18.0942 -0.065241 -0.0402751 0.129821
248 1 1 43.9181 8.78773 9.56864 0.246711 0.112428 0.0744482
249 1 3 43.7283 9.45813 9.61857 -0.0208784 0.037108 0.0930102
250 1 1 43.1193 10.6978 9.98604 0.0933709 0.113951 -0.0565524
251 1 1 43.0911 9.79598 9.58192 0.05966 -0.0697461 -0.00840076
252 1 1 42.2977 11.15 10.2493 -0.000885003 0.0300021 -0.0306727
253 1 3 42.396 11.9071 10.9404 0.0788591 0.0224368 -0.107906
254 1 1 38.4855 12.1581 18.1631 -0.0528931 0.0443637 -0.0327812
255 1 1 38.9423 12.7371 17.4329 0.155931 0.0593613 0.0817869
256 1 1 39.4107 13.1966 16.5967 0.059391 0.0804472 -0.0201152
257 1 3 41.658 12.3083 11.2883 0.0358773 -0.10611 0.0849264
258 1 1 41.6294 12.8385 11.9709 0.0547327 -0.0388552 -0.121357
259 1 1 41.7415 13.1508 12.6637 -0.0278808 0.0191527 -0.17404
260 1 1 41.3442 13.4115 13.4304 0.199805 0.0690596 0.10269
261 1 3 40.8397 13.508 14.1417 -0.072703 -0.110514 -0.0170346
262 1 1 40.3114 13.5684 14.9604 0.15489 -0.118892 -0.0312238
263 1 1 39.7904 13.4835 15.7766 0.23387 0.212184 0.10532
264 1 1 43.5678 8.15894 9.45941 0.0127966 0.207289 -0.0183699
265 1 3 43.6425 7.36614 9.56072 -0.00892013 -0.244821 -0.0333391
266 1 1 43.6463 6.37669 9.95037 0.0599822 0.264453 -0.00446039
267 1 1 43.5597 3.86422 12.6876 0.15201 -0.0572213 -0.089452
268 1 1 43.5701 4.31194 11.8512 -0.0502051 0.0781235 0.0166749
269 1 3 43.491 4.83069 11.1546 0.0499285 -0.0614801 0.131753
270 1 1 43.6187 5.5227 10.4865 -0.0737807 -0.157091 -0.0128194
271 1 1 43.8626 3.45566 14.0725 -0.0280771 0.0225363 -0.0871367
272 1 1 43.572 3.37892 14.7067 -0.0982759 -0.0130396 -0.102999
273 1 3 43.4625 3.54482 13.504 0.0872105 0.0714919 0.0821276
274 1 1 42.9671 3.33336 15.116 -0.190458 -0.0124353 0.0909975
275 1 1 42.8904 3.51848 16.0107 0.019528 -0.00529764 0.151773
276 1 1 41.5303 6.3056 18.9776 -0.0388449 -0.061961 0.115686
277 1 3 40.8262 6.53706 19.0832 -0.138723 0.00348981 -0.0933032
278 1 1 40.4754 7.19218 19.3418 0.077629 -0.145293 0.0225815
279 1 1 40.0895 8.06316 19.4884 0.0882249 0.0800222 -0.00939963
280 1 1 39.6812 9.0297 19.5431 0.120313 0.156847 -0.169046
281 1 3 39.3063 9.93688 19.3961 0.0966486 -0.0262826 0.181229
282 1 1 38.7416 10.7094 19.1728 0.0301894 -0.0563685 -0.0395366
283 1 1 38.0404 11.5245 18.7283 0.231709 -0.115287 0.0108766
284 1 1 42.2075 4.36822 17.3893 -0.0516719 -0.10023 0.0446654
285 1 3 42.1291 3.84079 16.6112 0.0867753 0.00906625 -0.0957821
286 1 1 41.4734 5.42875 18.4307 -0.0628423 0.00742412 -0.14354
287 1 1 41.4811 4.76635 17.7168 0.059434 -0.121445 0.00652656
288 1 1 42.969 8.94063 9.42717 -0.1486 -0.0124282 -0.137368
289 1 3 42.3702 10.2508 9.79235 -0.110395 -0.134374 0.0531358
290 1 1 42.3726 9.53044 9.57964 0.081005 -0.105947 0.161386
291 1 1 37.5083 12.2546 18.1219 -0.0344767 0.16703 -0.0113228
292 1 1 41.5723 10.7702 10.0431 0.0200512 0.014229 -0.146261
293 1 3 41.6125 11.6048 10.5497 0.0797869 -0.0571526 -0.0804466
294 1 1 38.0343 12.7862 17.5182 -0.153356 -0.206676 0.107343
295 1 1 38.5018 13.2018 16.7276 0.0826257 -0.00657381 3.81956e-05
296 1 1 38.899 13.4229 15.8792 0.0631818 -0.0207305 -0.0877934
297 1 3 40.8718 12.1183 10.9842 0.18538 -0.138009 -0.0202408
298 1 1 41.0722 12.595 11.5541 -0.147412 -0.0491527 -0.241935
299 1 1 40.8185 13.105 12.4476 0.0401367 0.0421686 -0.0267868
300 1 1 40.381 13.3509 13.3285 -0.240878 0.184482 0.105006
301 1 3 39.9025 13.5196 14.0932 -0.034463 -0.00598851 0.101062
302 1 1 39.3972 13.6044 15.0074 -0.0932817 -0.0832936 0.142921
303 1 1 42.8657 5.96459 10.1536 0.0698145 0.0770872 0.133463
304 1 1 42.9245 7.91277 9.53865 0.021533 -0.0173261 -0.026836
305 1 3 42.8774 6.88457 9.73621 -0.0908937 -0.0543165 0.0378884
306 1 1 42.7818 3.65621 13.1935 -0.0124545 -0.0147317 -0.0646896
307 1 1 42.7604 4.07036 12.2686 0.0741436 0.178531 0.0152435
308 1 1 42.7439 4.56189 11.4305 -0.050786 0.0491627 0.0111996
309 1 3 42.8411 5.16204 10.7307 0.0263878 -0.112673 0.0978751
310 1 1 42.8515 3.36172 14.0983 0.123711 -0.0449718 -0.082141
311 1 1 42.217 3.29642 14.7407 -0.0145932 -0.17355 -0.162861
312 1 1 42.0009 3.37574 15.6315 -0.0443852 0.042523 0.0113003
313 1 3 40.5939 5.79732 18.6706 -0.0759346 -0.0893019 -0.0634306
314 1 1 40.0779 6.42627 19.1269 -0.0369005 -0.196971 0.0105026
315 1 1 39.5601 7.22466 19.3979 0.125806 0.0412313 -0.0647773
316 1 1 39.0976 8.1219 19.55 -0.119692 -0.0586036 0.0762031
317 1 3 38.8105 9.07999 19.6417 -0.0388823 2.7068e-05 -0.000348523
318 1 1 38.2899 9.8933 19.5262 -0.00850736 -0.101609 0.15244
319 1 1 37.6995 10.7261 19.1934 -0.000598174 0.253368 -0.0195109
320 1 1 37.1193 11.5753 18.7496 -0.19781 -0.14095 0.21383
321 1 3 41.3824 4.21978 17.0047 0.180824 0.0592894 -0.0797919
322 1 1 41.4438 3.82762 16.3902 -0.0696398 -0.042042 0.0348462
323 1 1 40.6691 5.07745 17.9722 -0.0467327 -0.128348 0.0605717
324 1 1 40.8179 4.49309 17.3631 0.00184912 -0.0334363 0.0440295
325 1 3 42.2807 8.22644 9.51529 0.0881723 -0.102838 0.178417
326 1 1 41.9095 8.80584 9.50093 -0.0500952 0.0208229 -0.0866336
327 1 1 41.5539 9.72069 9.70713 -0.0212065 0.0119818 0.0514319
328 1 1 40.8692 10.4458 9.9573 -0.0222137 0.114451 0.188034
329 1 3 36.5059 12.3292 18.2353 -0.0602628 0.0690826 0.0801456
330 1 1 36.9578 12.8539 17.5434 0.133989 0.000942169 0.000423789
331 1 1 40.6746 11.2687 10.3734 0.0452981 0.0843672 0.0154248
332 1 1 37.4653 13.2509 16.8099 0.0405429 0.142558 -0.0580942
333 1 3 37.9218 13.5042 15.9271 -0.00337334 0.0222108 -0.00711359
334 1 1 38.3572 13.6282 15.0422 0.00658759 -0.261216 -0.00723061
335 1 1 40.1584 11.8647 10.8208 0.0694116 0.103235 -0.0712341
336 1 1 40.1381 12.5528 11.5315 0.0584312 -0.0240682 -0.0851785
337 1 3 39.7798 13.0952 12.4524 -0.173546 0.0493049 0.108335
338 1 1 39.344 13.3894 13.271 -0.163784 0.0256798 0.060057
339 1 1 38.8658 13.5619 14.2146 0.184986 0.0653168 -0.0190851
340 1 1 42.1614 3.56194 13.3557 -0.0666919 0.0678736 -0.080395
341 1 3 42.0619 5.604 10.3802 0.0276451 0.142388 0.143456
342 1 1 42.0431 6.40243 9.95508 0.168817 0.110278 -0.00388963
343 1 1 41.9865 7.31416 9.61018 0.0122504 0.00197461 0.0537344
344 1 1 42.0899 3.79753 12.7072 0.0373212 0.133444 -0.139439
345 1 3 41.889 4.30305 11.7688 0.0418612 -0.157449 -0.172833
346 1 1 41.93 4.93403 11.0107 0.00297093 -0.00287805 0.0939513
347 1 1 41.2219 5.30868 10.7121 -0.225459 0.0402403 0.132832
348 1 1 41.8598 3.37281 14.0679 0.0988202 -0.0845923 -0.00467802
349 1 3 41.4135 3.27086 14.7663 0.112073 -0.059992 0.0753423
350 1 1 40.8982 3.54537 15.6889 0.0246312 -0.0862238 0.0670885
351 1 1 39.901 5.31791 18.2365 0.0444002 -0.0452581 0.116134
352 1 1 39.6073 5.8079 18.7458 -0.0694465 -0.266408 -0.0942416
353 1 3 39.0026 6.36966 19.162 -0.0805622 0.103269 -0.0495238
354 1 1 38.6167 7.18593 19.4664 -0.00224364 -0.138246 -0.0948123
355 1 1 38.2263 8.158 19.6324 0.120261 -0.102221 -0.150057
356 1 1 37.8357 9.06478 19.7175 -0.00976358 0.0381659 0.0396107
357 1 3 37.3014 9.89246 19.5926 -0.0555945 -0.121538 -0.0777644
358 1 1 36.7368 10.8077 19.2101 0.000541444 0.0928126 0.0893469
359 1 1 36.1306 11.6268 18.7993 -0.1397 0.131772 -0.00828211
360 1 1 40.458 3.99664 16.5924 -0.0633873 0.0628104 0.138954
361 1 3 39.8406 4.58037 17.5498 -0.144584 0.0918969 0.125552
362 1 1 41.4869 8.06516 9.49499 -0.121047 0.0659763 0.0300651
363 1 1 40.9077 8.84392 9.53643 0.0020004 0.0235401 -0.0145765
364 1 1 40.4535 9.74572 9.82701 -0.0204889 0.0952226 0.0801457
365 1 3 40.0718 10.5982 10.0959 -0.16555 -0.0961944 -0.135275
366 1 1 35.4982 12.4075 18.2658 -0.160546 0.188932 -0.236506
367 1 1 35.9497 12.8441 17.6239 0.086526 0.046085 0.049234
368 1 1 36.4847 13.299 16.8168 -0.138632 -0.0360519 -0.00780439
369 1 3 39.6173 11.3448 10.5229 0.0724581 -0.0712962 -0.0742124
370 1 1 36.9155 13.5725 16.0106 0.0100273 0.0109503 0.176299
371 1 1 37.3693 13.6973 15.103 0.068188 -0.0171726 -0.00630827
372 1 1 37.7697 13.7218 14.1733 0.139431 -0.0647254 -0.0471538
373 1 3 39.468 12.0573 11.0372 -0.204745 -0.129227 0.00507788
374 1 1 39.0666 12.6269 11.7076 0.0784044 -0.0990307 -0.0454674
375 1 1 38.7823 13.1375 12.4604 0.064651 -0.0646715 -0.142862
376 1 1 38.3455 13.4968 13.4038 0.109841 -0.0306549 -0.087151
377 1 3 41.2077 3.60929 13.2317 0.050975 -0.153824 -0.075477
378 1 1 41.2332 6.03503 10.1162 -0.0349461 0.0639346 -0.053621
379 1 1 41.255 6.67755 9.83361 0.16487 0.125476 -0.000465763
380 1 1 40.7989 7.38645 9.65991 -0.0510557 -0.0330594 -0.05574
381 1 3 41.2161 4.0337 12.2748 -0.0190338 0.164638 -0.134402
382 1 1 41.1297 4.6035 11.4876 0.193467 -0.0819591 0.0631776
383 1 1 40.4065 5.06879 11.0109 0.0355432 0.0644396 -0.220518
384 1 1 40.7073 5.58809 10.417 -0.00558121 -0.116292 0.0604981
385 1 3 40.8294 3.37434 14.0991 -0.123741 0.132443 0.0681075
386 1 1 40.3797 3.45385 15.0069 -0.00976303 0.0115841 0.137475
387 1 1 39.8704 3.67186 15.8113 -0.0331362 -0.106626 -0.0816754
388 1 1 39.2271 5.13893 18.2065 -0.0964636 0.0784334 0.187833
389 1 3 38.6451 5.72625 18.737 -0.130904 0.0490065 0.0649546
390 1 1 38.0938 6.56476 19.2644 0.0331987 -0.0191466 0.0586588
391 1 1 37.6357 7.43369 19.6008 -0.0706561 0.063747 0.00331258
392 1 1 37.2188 8.25719 19.7703 -0.0614002 -0.11162 -0.0619033
393 1 3 36.7585 9.15612 19.7166 0.145852 -0.00882315 -0.00958866
394 1 1 36.2843 9.97447 19.5351 -0.096636 -0.0614862 -0.207716
395 1 1 35.6894 10.9105 19.2151 0.100462 -0.000828683 0.00299891
396 1 1 35.1211 11.7059 18.7688 -0.102804 -0.179102 0.030894
397 1 3 39.3804 4.07368 16.713 -0.0235684 0.0894351 0.0202831
398 1 1 38.8611 4.5305 17.5436 -0.0507334 -0.0527566 -0.145057
399 1 1 40.3695 8.07745 9.56472 -0.100646 -0.00247875 -0.00363072
400 1 1 39.9353 9.02045 9.57452 -0.0324048 -0.0399184 -0.0761765
401 1 3 39.4275 9.79604 9.83666 0.206174 -0.0387461 -0.150191
402 1 1 34.5046 12.3578 18.2606 -0.153407 -0.0366057 -0.0916249
403 1 1 39.1006 10.6116 10.1585 0.0958135 0.131256 -0.0652762
404 1 1 34.8979 12.9047 17.5481 -0.140489 -0.01888 0.00913523
405 1 3 35.4176 13.3742 16.8642 0.116598 -0.0329786 -0.175857
406 1 1 35.8757 13.6137 16.1105 -0.0664485 -0.0407235 0.0416175
407 1 1 38.7998 11.3751 10.5544 0.155688 -0.0506663 -0.0215103
408 1 1 36.4204 13.7537 15.2319 0.0603529 0.01047 0.0433571
409 1 3 36.8017 13.7501 14.1834 -0.0400366 -0.0193557 -0.0113433
410 1 1 37.3476 13.551 13.3641 0.0369706 -0.224673 -0.0359879
411 1 1 38.4785 12.1151 11.0544 0.00879752 0.170283 -0.0756933
412 1 1 38.1001 12.7119 11.7551 -0.0880441 -0.0928261 0.00529807
413 1 3 37.7932 13.1962 12.5277 -0.318525 -0.00903034 -0.129435
414 1 1 40.4832 3.96993 12.5892 0.0801644 0.115853 -0.0646591
415 1 1 40.1859 3.6558 13.3816 -0.0601587 -0.12311 0.0198091
416 1 1 40.299 6.44088 9.96052 -0.0168455 0.0858321 0.108222
417 1 3 39.8202 7.27095 9.7422 0.123935 0.000916873 0.0202188
418 1 1 40.2747 4.44843 11.8523 -0.0688599 -0.221043 0.043487
419 1 1 39.6777 4.93451 11.2937 -0.00994757 -0.113137 0.0504615
420 1 1 39.7071 5.60645 10.5219 -0.15213 0.0589499 0.00833978
421 1 3 39.849 3.55807 14.253 -0.121702 -0.209777 0.0967384
422 1 1 39.4323 3.54873 15.082 0.0398853 0.00414292 0.0750635
423 1 1 38.8842 3.75396 15.9865 0.0339424 -0.0596403 0.078177
424 1 1 38.2089 5.07539 18.1839 0.114177 -0.117563 0.217351
425 1 3 37.6539 5.79413 18.7371 -0.0951199 0.069852 0.0257803
426 1 1 37.1566 6.63918 19.2295 -0.00455909 -0.220568 -0.0700931
427 1 1 36.6092 7.37509 19.6172 -0.143654 0.0878619 0.0302615
428 1 1 36.2123 8.2464 19.7646 -0.0358426 0.00791992 -0.117576
429 1 3 34.1765 11.6844 18.8637 0.0279474 -0.0130778 -0.034145
430 1 1 35.7829 9.18706 19.6967 -0.0214778 0.0291629 0.0269734
431 1 1 35.311 10.0481 19.5337 0.00200119 -0.119753 0.0790821
432 1 1 34.7244 10.9724 19.2751 -0.136176 0.0322439 -0.0834976
433 1 3 38.4499 4.09717 16.8496 -0.0125078 -0.0815665 -0.0986291
434 1 1 37.752 4.56686 17.5427 -0.0350713 -0.0687533 0.203317
435 1 1 39.3959 8.15662 9.54345 -0.00130376 0.0554628 -0.152032
436 1 1 38.9515 9.04498 9.64563 -0.0349153 -0.0657593 -0.154935
437 1 3 38.5036 9.92028 9.88184 0.0470667 -0.0587082 0.0180172
438 1 1 33.4813 12.3938 18.3733 -0.0583574 0.00626471 -0.106026
439 1 1 33.8881 12.922 17.6118 0.0237581 -0.162257 0.0328558
440 1 1 38.108 10.6857 10.1861 0.00961625 -0.0422682 0.181216
441 1 3 34.3738 13.3856 16.867 -0.00528671 0.165035 0.0642392
442 1 1 34.8859 13.6529 16.1525 0.00880844 -0.0257539 0.0276184
443 1 1 35.4358 13.7506 15.2218 0.0844438 -0.0671339 0.114035
444 1 1 37.7656 11.4536 10.6054 0.146427 -0.0957811 0.106847
445 1 3 35.8766 13.751 14.3231 0.0975831 0.0203004 0.16271
446 1 1 36.3232 13.5754 13.4108 0.0338279 0.0375254 0.062802
447 1 1 36.7748 13.1601 12.5559 0.023794 -0.0238694 0.13428
448 1 1 37.4893 12.1504 11.1867 -0.0393875 0.127782 0.117027
449 1 3 37.126 12.6883 11.8046 -0.0854856 0.0722075 -0.00703321
450 1 1 39.777 4.05387 12.6147 0.145681 0.152582 0.0191392
451 1 1 39.2916 3.78232 13.4189 0.00810814 -0.0610609 -0.172911
452 1 1 39.2386 6.47612 10.0234 -0.0938611 0.0239239 -0.0552
453 1 3 38.9013 7.3385 9.73772 -0.097082 0.0110597 -0.0715553
454 1 1 39.3027 4.48123 11.8673 0.0394904 -0.10105 0.135577
455 1 1 38.9938 5.11986 11.1865 -0.112534 0.0719497 -0.13487
456 1 1 38.6592 5.76971 10.5857 -0.098802 -0.0015937 -0.100738
457 1 3 38.8614 3.65943 14.2466 0.14596 -0.115237 0.0642723
458 1 1 38.3962 3.67558 15.1792 0.0421453 0.0685097 -0.0684472
459 1 1 37.8857 3.84915 16.0751 0.164436 -0.0958362 -0.0554034
460 1 1 37.2043 5.1463 18.2141 0.245431 -0.0559333 0.134389
461 1 3 36.7419 5.83354 18.8055 -0.0597909 0.185718 -0.00891461
462 1 1 36.1146 6.58201 19.2352 0.0114794 0.150614 -0.0160358
463 1 1 35.6121 7.42854 19.6536 0.0181331 0.0666046 0.0534573
464 1 1 35.184 8.27968 19.7504 0.0145833 0.12557 0.195412
465 1 3 33.2472 11.7494 18.9087 0.139284 -0.0893133 -0.196722
466 1 1 33.7593 10.9643 19.3156 0.127037 -0.0250576 0.123119
467 1 1 34.7609 9.21225 19.6829 -0.021152 -0.0902768 -0.072863
468 1 1 34.3217 10.087 19.625 -0.0613276 0.0405262 -0.0410173
469 1 3 37.3331 4.09863 16.8785 -0.0983709 -0.110357 0.155003
470 1 1 36.7514 4.65919 17.6049 -0.0127165 0.130663 -0.189615
471 1 1 38.4615 8.19696 9.55654 0.130631 0.0041687 0.142432
472 1 1 37.9486 9.0565 9.68742 0.0339477 -0.158767 0.182669
473 1 3 37.5343 9.92929 9.88743 0.0999969 -0.0831467 -0.00684815
474 1 1 32.5041 12.3794 18.4437 0.23729 -0.193321 0.0412365
475 1 1 32.8658 12.9834 17.6862 0.189262 0.0132391 0.0269773
476 1 1 33.387 13.3481 16.8897 -0.0918692 -0.05601 0.132819
477 1 3 37.1506 10.7623 10.2433 0.149853 -0.164232 -0.0154544
478 1 1 33.7659 13.6312 15.9973 0.12129 0.0475648 -0.0980274
479 1 1 34.3889 13.7866 15.256 -0.0251386 0.00116932 0.160163
480 1 1 34.8899 13.7396 14.4192 -0.0979229 -0.158294 0.0441177
481 1 3 36.7423 11.4998 10.6554 0.145519 -0.161645 0.121784
482 1 1 35.2922 13.6069 13.5039 -0.0687371 -0.135905 -0.0533002