ITEM: TIMESTEP
100000000
ITEM: NUMBER OF ATOMS
37074
ITEM: BOX BOUNDS pp pp pp
0 62
0 62
0 62
ITEM: ATOMS id mol type x y z vx vy vz 
1 1 1 21.1437 25.6972 17.6916 0.078202 -0.0874687 -0.0539272 
2 1 1 20.5827 25.6297 17.0194 0.0922777 0.191478 -0.120701 
3 1 1 21.5553 25.8902 16.9082 0.0246825 0.0223645 0.051982 
4 1 1 20.9259 25.9247 16.2199 0.0977791 -0.0711397 0.126504 
5 1 1 22.1157 26.0372 17.6984 0.0508382 0.176217 0.0758467 
6 1 1 21.9242 26.2783 16.1157 0.0734906 -0.0625508 -0.0325399 
7 1 1 21.2617 26.3914 15.3586 0.122548 0.12369 0.0690414 
8 1 1 20.3886 25.5519 17.9621 0.0621875 0.0836171 -0.116809 
9 1 1 19.6172 25.5177 17.4388 0.00392178 0.0588979 0.25577 
10 1 1 19.9321 25.6262 16.5191 0.117927 0.159763 -0.177546 
11 1 1 20.2887 26.0371 15.7036 -0.0736075 0.037959 0.121529 
12 1 1 20.3591 26.433 14.9417 0.0362826 -0.00912909 -0.228394 
13 1 1 21.0077 25.6783 18.6922 0.0331529 0.101298 0.0203767 
14 1 1 21.6754 25.8547 18.2941 0.00667243 -0.0482306 -0.120044 
15 1 1 22.242 26.1585 18.5116 0.0683282 0.0472582 0.103129 
16 1 1 22.4152 26.3395 16.8839 0.0462088 0.0121529 0.0814974 
17 1 1 22.8975 26.4764 17.7603 0.0784482 -0.200135 0.00973634 
18 1 1 20.8913 26.8303 14.6123 -0.175034 -0.0890427 -0.0510608 
19 1 1 21.6588 27.0405 14.7453 0.0531045 -0.0383702 0.0429054 
20 1 1 22.1945 26.7992 15.3701 -0.09074 0.111902 0.130458 
21 1 1 22.6927 26.7995 16.0246 -0.00710062 -0.0254814 -0.090459 
22 1 1 20.7736 25.724 19.4112 0.0519348 -0.121421 0.117527 
23 1 1 20.0461 25.5132 18.7557 -0.0121545 -0.01079 0.116179 
24 1 1 19.2661 25.5271 18.2177 0.0784958 0.0243006 0.0399298 
25 1 1 18.7064 25.6102 17.7147 -0.114543 0.120125 -0.0203178 
26 1 1 18.8799 25.6161 16.8073 0.0863958 -0.00950177 -0.0486381 
27 1 1 19.2314 25.9285 15.9082 -0.000535652 0.0701607 -0.0554824 
28 1 1 20.321 27.0373 14.1919 0.265036 -0.0203283 -0.196447 
29 1 1 19.4278 26.2989 15.1352 -0.143813 -0.0747793 -0.125047 
30 1 1 19.5278 26.7879 14.364 0.151001 0.160726 0.176809 
31 1 1 21.709 25.982 19.2932 0.0650879 -0.0795437 -0.19596 
32 1 1 22.5911 26.4554 19.1137 -0.268354 0.0433317 -0.132244 
33 1 1 23.1338 26.7346 18.5348 -0.228297 0.12596 0.0758303 
34 1 1 23.2709 26.9309 16.951 0.0643294 -0.109972 -0.0257161 
35 1 1 23.5867 27.101 17.9455 -0.0737561 -0.0456827 0.0651002 
36 1 1 21.1357 27.3782 14.0993 -0.0854095 -0.132193 -0.00642931 
37 1 1 21.9366 27.6593 14.1976 -0.0733699 0.116639 0.132673 
38 1 1 20.4366 27.6139 13.6593 -0.238783 -0.0448593 0.0137986 
39 1 1 22.4471 27.4995 14.7788 0.231642 -0.0410687 0.040024 
40 1 1 22.9817 27.4653 15.3465 0.0838857 -0.045795 0.133207 
41 1 1 23.5239 27.4818 16.1957 -0.0540118 0.0348083 0.0796271 
42 1 1 21.0402 26.0235 19.9869 -0.0245547 -0.041651 0.0751098 
43 1 1 20.0318 25.9076 20.1011 0.199685 -0.111263 -0.0782288 
44 1 1 19.6148 25.7046 19.4953 -0.139782 0.0996521 0.0348484 
45 1 1 19.204 25.5907 18.9435 0.104208 -0.0506338 0.120356 
46 1 1 18.463 25.7417 18.6811 -0.0831237 0.045051 -0.0500367 
47 1 1 17.8304 25.8428 18.172 0.0255236 -0.161304 0.202447 
48 1 1 17.9231 25.8031 17.1375 0.156521 0.106139 0.0677687 
49 1 1 18.2407 26.0097 16.1943 -0.0351251 -0.0252094 0.018982 
50 1 1 18.4406 26.3203 15.4009 0.129826 -0.0785648 -0.160686 
51 1 1 19.6269 27.3831 13.7343 0.141559 -0.117595 0.0845849 
52 1 1 18.6276 26.7727 14.6925 -0.0769731 0.0672527 0.0391016 
53 1 1 18.9553 27.164 14.1131 -0.0238256 0.063236 0.0678029 
54 1 1 21.6723 26.367 20.1707 -0.10192 -0.0229177 0.0132157 
55 1 1 20.9612 26.5822 20.901 -0.0867435 0.103907 0.0287833 
56 1 1 22.3325 26.5631 19.8041 0.0184072 -0.0637098 0.00422387 
57 1 1 23.1015 26.9133 19.4913 0.0872693 -0.131925 0.178484 
58 1 1 22.2817 26.9786 20.6381 -0.00184617 -0.0410987 -0.00647759 
59 1 1 23.6984 27.349 18.9282 0.121693 -0.0632497 -0.0502995 
60 1 1 23.8843 27.6313 17.1824 0.019902 -0.0326574 -0.0501564 
61 1 1 24.0545 27.8686 18.2664 0.092477 0.0203495 0.0446567 
62 1 1 22.527 28.0952 14.3748 0.0191415 0.0530368 -0.158026 
63 1 1 21.3119 28.0156 13.6822 0.0232903 0.0319549 0.0110221 
64 1 1 22.0638 28.4672 13.8714 0.195122 0.000123576 -0.141986 
65 1 1 19.7184 28.0257 13.3331 -0.0844167 -0.160351 0.0177547 
66 1 1 20.5929 28.3719 13.2436 -0.00818322 0.197777 0.120571 
67 1 1 23.0406 28.2657 14.7711 0.111748 0.0618979 -0.0405412 
68 1 1 23.6176 28.2087 15.5018 -0.0290996 -0.155688 -0.00299039 
69 1 1 24.0344 28.2393 16.4336 -0.320145 0.0932229 0.0659638 
70 1 1 20.241 26.1578 20.564 -0.190198 0.00734652 -0.0922087 
71 1 1 19.3692 26.0925 20.3998 0.0227593 0.185604 -0.102339 
72 1 1 18.5939 25.9829 19.645 -0.021843 0.0554012 0.0211891 
73 1 1 17.728 26.1895 19.1966 0.0542351 0.109938 -0.00130915 
74 1 1 17.1352 26.2971 18.5895 -0.0256146 0.138834 -0.0330632 
75 1 1 17.2206 26.1595 17.5691 -0.067054 -0.0387102 0.024508 
76 1 1 17.3813 26.3266 16.5088 -0.0219808 0.113575 -0.159338 
77 1 1 17.6046 26.5537 15.6475 0.0588612 -0.032091 -0.0558658 
78 1 1 17.7903 27.0454 14.913 -0.100007 -0.0746179 0.0961304 
79 1 1 18.9664 27.7924 13.5754 -0.118174 0.0297672 -0.00869531 
80 1 1 18.1232 27.5017 14.1271 -0.0124422 -0.189681 -0.101881 
81 1 1 18.9671 28.6052 13.1954 0.0957812 0.0289433 0.0340533 
82 1 1 20.2135 26.8829 21.4247 0.0341444 0.0617383 -0.0997259 
83 1 1 21.6995 27.0029 21.1015 0.27057 0.104524 0.0890573 
84 1 1 21.023 27.0676 21.4249 0.1411 -0.132637 0.0952518 
85 1 1 22.8508 27.2385 20.3521 -0.0555499 -0.116869 0.212933 
86 1 1 23.5784 27.6122 19.9071 0.0243708 -0.00349465 -0.192997 
87 1 1 22.498 27.5412 21.046 -0.0652139 0.0406777 0.0526739 
88 1 1 24.1659 28.151 19.2652 -0.0792324 0.0616317 0.00672085 
89 1 1 24.2595 28.4992 17.5315 -0.0844216 -0.0452932 0.0988225 
90 1 1 24.4353 28.7992 18.657 0.040683 0.0163203 0.0248636 
91 1 1 22.8806 29.0693 14.187 -0.136213 -0.0272924 0.0026145 
92 1 1 21.454 28.8427 13.3277 0.0341521 0.0832754 -0.0802562 
93 1 1 22.19 29.3269 13.6151 0.0050804 0.154512 0.0351338 
94 1 1 19.819 28.8951 13.0271 -0.0293354 -0.0264525 0.0166557 
95 1 1 20.8021 29.2139 13.0197 0.0960986 0.22713 0.23496 
96 1 1 23.5911 29.0494 14.9326 -0.157119 -0.184214 0.0708467 
97 1 1 24.0808 28.9858 15.8217 0.154002 -0.154603 -0.0570898 
98 1 1 24.3868 29.1367 16.8706 0.0983508 -0.0565006 0.0109107 
99 1 1 19.4841 26.6498 21.0655 -0.043911 0.00873597 -0.0810729 
100 1 1 18.529 26.5869 20.7412 0.0532686 -0.163226 0.0858816 
101 1 1 17.7313 26.6252 20.1421 0.0881073 -0.0704237 0.0857422 
102 1 1 16.9964 26.713 19.5341 -0.18119 0.0767598 -0.0217099 
103 1 1 16.6105 26.5473 17.9196 0.0148795 0.00135601 0.00738793 
104 1 1 16.4301 26.755 18.6374 -0.0179959 -0.0989415 -0.049752 
105 1 1 16.4819 26.7699 17.0306 -0.00883031 0.00539086 -0.202807 
106 1 1 16.8654 27.0343 15.9957 0.0343274 -0.0812788 0.0765505 
107 1 1 17.1305 27.3498 15.2233 0.0171641 -0.238912 -0.0644185 
108 1 1 17.3203 27.6559 14.6598 -0.0743094 0.0433673 0.0762807 
109 1 1 19.1212 29.4618 12.8807 0.224283 0.0611408 -0.0544663 
110 1 1 18.1377 28.2988 13.621 -0.0767916 -0.0292431 -0.0566026 
111 1 1 17.388 28.1583 14.1765 0.150219 0.0456559 -0.0447713 
112 1 1 18.2412 29.133 13.1621 0.131696 0.0757388 0.0228452 
113 1 1 20.6495 27.5856 21.893 -0.0679551 0.017998 0.0297349 
114 1 1 19.7334 27.3359 21.8305 -0.00457039 0.000926486 0.0153574 
115 1 1 21.7198 27.874 21.8124 -0.098257 0.0498969 -0.0135219 
116 1 1 21.114 28.393 22.2894 -0.145507 0.0482852 -0.0373094 
117 1 1 23.2521 28.0417 20.84 -0.104643 0.189452 0.0984518 
118 1 1 23.8953 28.504 20.2504 0.0516584 0.146147 0.0162935 
119 1 1 22.6825 28.4037 21.6007 -0.139121 -0.000982707 -0.00805893 
120 1 1 24.3617 29.0767 19.6075 0.0294811 -0.0127224 -0.0646158 
121 1 1 24.5747 29.3335 17.8977 -0.00147845 -0.0357627 -0.0198391 
122 1 1 24.6248 29.6441 19.0123 0.0875092 -0.0641657 -0.105693 
123 1 1 23.4298 29.9151 14.512 0.0133305 -0.0300082 -0.0607972 
124 1 1 22.7894 29.8768 13.9111 0.090569 -0.020148 0.0834052 
125 1 1 21.6636 29.7644 13.1964 0.101264 -0.0790582 -0.0252597 
126 1 1 22.3885 30.2045 13.5979 0.161291 -0.137961 -0.224669 
127 1 1 19.9997 29.7258 12.8122 0.0241322 -0.0097529 0.0132772 
128 1 1 20.7876 30.1483 12.918 0.0314425 0.101548 0.132933 
129 1 1 19.2535 30.2685 12.6221 -0.0334573 0.0162446 -0.17894 
130 1 1 24.6468 30.0069 17.3867 -0.124783 0.011252 -0.100255 
131 1 1 23.9536 29.8365 15.2754 0.0626688 0.141661 -0.194916 
132 1 1 24.4558 30.033 16.444 0.0557767 -0.101824 0.0354245 
133 1 1 18.7579 27.1231 21.4653 -0.0393455 0.0133194 -0.0904218 
134 1 1 17.8649 27.1351 21.0249 -0.0837792 0.0505924 -0.060799 
135 1 1 16.2984 27.1398 19.2671 0.0143417 0.183186 -0.0425625 
136 1 1 17.1955 27.1625 20.4655 -0.0564194 -0.0153392 0.043243 
137 1 1 16.5215 27.3481 19.9619 -0.150193 0.0650495 -0.0182257 
138 1 1 16.0676 27.067 17.9517 0.0759205 -0.0653834 0.106966 
139 1 1 15.8934 27.4219 18.8071 0.19973 0.13172 0.00810779 
140 1 1 15.7495 27.5302 17.2154 0.217054 -0.15048 0.250717 
141 1 1 16.1545 27.4949 16.3425 -0.116722 0.0330183 0.0210227 
142 1 1 16.483 27.5746 15.6958 0.0433962 -0.0426019 -0.175661 
143 1 1 16.5993 28.1103 14.9939 0.0531439 0.0448462 -0.0969556 
144 1 1 18.3489 29.9496 12.8287 0.170404 -0.174828 -0.00214705 
145 1 1 17.3827 28.8359 13.6932 0.105597 0.0640902 0.0274557 
146 1 1 16.853 28.6837 14.2351 0.0486831 0.173595 0.0502917 
147 1 1 17.481 29.7931 13.2289 0.0114883 -0.0808884 -0.0941674 
148 1 1 20.176 28.1467 22.2869 -0.102518 -0.0841268 -0.0146346 
149 1 1 19.1435 27.9554 22.1198 -0.0351873 0.0984488 0.101664 
150 1 1 22.0032 28.897 22.1972 0.0268363 -0.122843 0.102918 
151 1 1 20.4178 28.8413 22.5952 0.031091 -0.0369466 0.0421732 
152 1 1 21.3105 29.4101 22.6579 0.0126631 0.00956205 0.0215428 
153 1 1 23.4164 28.9748 21.151 -0.0478223 -0.0168743 -0.130082 
154 1 1 24.0481 29.5136 20.5339 0.0975392 0.00648128 -0.142429 
155 1 1 22.8545 29.3335 21.8012 -0.0394486 0.0474016 0.0747057 
156 1 1 24.4687 30.0056 19.7406 0.028549 0.0942851 0.0786565 
157 1 1 24.7597 30.2154 18.2968 0.0615254 -0.0732271 -0.0254923 
158 1 1 24.7082 30.4079 19.1839 -0.00660738 0.00610995 0.0492965 
159 1 1 23.6679 30.458 14.8282 0.115273 0.164779 -0.0780921 
160 1 1 23.0559 30.6772 14.1686 0.0702317 0.135379 -0.0161351 
161 1 1 22.3644 30.991 13.5595 -0.0924876 -0.017297 -0.0151999 
162 1 1 21.6566 30.7549 13.0769 -0.0236531 0.018405 0.0309128 
163 1 1 19.9986 30.5924 12.6047 -0.0444504 0.0570176 0.179255 
164 1 1 20.7329 30.8933 12.7446 0.0200171 -0.0449435 0.000842408 
165 1 1 18.602 30.8097 12.4805 0.115395 -0.0155717 -0.0446959 
166 1 1 19.3784 30.973 12.4364 -0.0584789 -0.168866 0.0780401 
167 1 1 24.6185 30.7191 17.0427 -0.0565678 0.203016 -0.119864 
168 1 1 24.7671 30.7207 17.8304 0.0210809 -0.168612 -0.0617256 
169 1 1 24.0536 30.6994 15.4987 -0.0529481 -0.045472 -0.16796 
170 1 1 24.3691 31.0821 16.3188 -0.0707629 0.0408469 -0.0795065 
171 1 1 18.1914 27.8566 21.7763 -0.201545 -0.168718 -0.0294172 
172 1 1 17.3872 27.8469 21.2718 0.0796225 -0.269411 0.00338249 
173 1 1 15.9766 27.6339 19.5147 -0.0419688 -0.128607 -0.254401 
174 1 1 16.6725 27.9623 20.7897 0.041811 -0.0537443 -0.0815547 
175 1 1 16.1551 27.9569 20.2048 0.090184 0.064782 0.117718 
176 1 1 15.521 28.1363 19.0803 0.102274 -0.00536119 0.0557732 
177 1 1 15.5379 27.7664 18.1509 0.197743 -0.0482482 -0.055351 
178 1 1 15.3272 28.2691 17.5434 0.0130874 -0.139599 0.20312 
179 1 1 15.5055 28.2354 16.5728 -0.201259 -0.0451208 0.146481 
180 1 1 16.0106 28.1808 15.7518 0.0647923 -0.0901487 0.0536304 
181 1 1 15.8782 28.872 15.2515 -0.0718175 -0.143967 0.0226484 
182 1 1 16.2456 28.9533 14.7004 0.0476547 0.00778439 0.0167442 
183 1 1 17.6465 30.6137 12.742 0.00982148 0.00825086 -0.103465 
184 1 1 17.9911 31.3391 12.3579 -0.0497031 -0.113467 -0.227922 
185 1 1 16.6719 29.4639 13.8372 0.00544947 -0.0134118 0.0930711 
186 1 1 16.9712 30.3495 13.2031 -0.317858 0.0449207 0.00514899 
187 1 1 19.486 28.7545 22.5549 -0.16558 0.055895 0.0374058 
188 1 1 18.4828 28.663 22.4188 0.0135213 -0.169355 0.0376291 
189 1 1 22.2939 29.7477 22.3193 0.000388456 -0.193176 0.066442 
190 1 1 21.8088 30.2491 22.6425 -0.101425 -0.0131752 0.0971172 
191 1 1 19.9298 29.3746 22.8283 0.113466 -0.0996875 -0.12805 
192 1 1 20.4436 29.7605 22.8995 0.0358122 0.0318768 0.0147736 
193 1 1 21.0614 30.2097 22.8272 0.155811 -0.0970779 -0.0962888 
194 1 1 23.5247 29.9349 21.3574 -0.034383 0.00114871 -0.0893912 
195 1 1 24.079 30.4722 20.635 -0.0308755 0.0757708 -0.0540426 
196 1 1 22.9723 30.4168 21.9207 -0.0157759 -0.0877512 -0.017857 
197 1 1 24.5022 31.0503 19.776 -0.206185 0.114771 -0.0628027 
198 1 1 24.7826 31.092 18.7958 0.0523652 -0.10564 -0.0566704 
199 1 1 23.5638 31.136 14.8683 -0.133801 0.165893 0.223773 
200 1 1 23.2138 31.5769 14.5524 0.0767335 -0.0842212 0.0380613 
201 1 1 22.678 31.5076 13.8811 0.0786517 0.0639863 0.00405494 
202 1 1 21.9368 31.6357 13.3435 -0.0993568 -0.00231293 0.0469219 
203 1 1 21.1234 31.7015 12.795 -0.0370616 -0.00664511 -0.137336 
204 1 1 20.1255 31.6034 12.4131 -0.00895539 0.111077 0.144373 
205 1 1 18.8715 31.7367 12.1817 -0.0316297 -0.0431903 -0.0197733 
206 1 1 24.561 31.4062 17.2242 -0.0502652 -0.217111 0.0486304 
207 1 1 24.6232 31.6901 18.1398 -0.0559647 0.05186 -0.135335 
208 1 1 23.9303 31.5451 15.7695 0.0610087 -0.0299095 -0.0851086 
209 1 1 24.1869 31.9231 16.6555 0.0452064 0.0353568 -0.0412247 
210 1 1 17.5258 28.5754 21.9473 0.0588075 -0.0588639 0.0422722 
211 1 1 16.82 28.639 21.4127 -0.0159869 -0.0256553 0.0820913 
212 1 1 15.7685 28.3855 19.9078 0.0711205 -0.204042 0.00320206 
213 1 1 16.0814 28.7513 20.8063 -0.0910964 0.0337141 0.0286657 
214 1 1 15.2281 28.8805 19.3758 0.0687218 -0.247876 -0.0129658 
215 1 1 15.1427 28.5452 18.4573 -0.0471675 0.0762744 -0.0960368 
216 1 1 17.8817 32.0648 12.0652 0.0785243 0.0188123 0.0331718 
217 1 1 17.253 31.5344 12.4495 -0.18703 0.070736 -0.00227111 
218 1 1 14.8303 29.0852 17.8632 0.0338066 0.0486898 0.0529736 
219 1 1 15.0222 28.9709 16.9972 0.0703326 -0.149405 0.107963 
220 1 1 15.3719 29.028 16.0207 0.000471267 -0.0339681 0.206186 
221 1 1 15.5282 29.4524 15.1063 0.11921 0.0575386 -0.0951844 
222 1 1 15.8593 29.8365 14.4479 -0.0212488 -0.110043 0.165497 
223 1 1 16.7394 30.9957 12.9774 -0.0409405 -0.0574944 0.0684277 
224 1 1 16.1713 30.4194 13.6197 -0.0316207 0.124287 0.0297864 
225 1 1 17.8157 29.3743 22.4865 -0.0584342 -0.11225 -0.0495445 
226 1 1 18.9257 29.5496 22.8085 0.244984 -0.0318646 0.0342441 
227 1 1 22.4712 30.8392 22.3324 -0.181745 -0.0564742 0.0637711 
228 1 1 21.8568 31.0264 22.6555 -0.0358803 0.057753 -0.0705813 
229 1 1 21.2447 30.9714 22.8361 -0.0464866 -0.0239474 0.00604358 
230 1 1 19.6385 30.2358 22.9766 -0.145009 -0.0269414 -0.0425731 
231 1 1 20.5177 30.6373 22.9347 -0.0482519 -0.0331498 0.141218 
232 1 1 23.5555 30.9872 21.3162 -0.058949 0.00326468 -0.00985324 
233 1 1 23.9581 31.497 20.6585 -0.0241513 -0.213864 0.0928479 
234 1 1 23.0719 31.4703 21.7552 0.139037 -0.0632413 0.0584848 
235 1 1 24.1209 32.1206 19.9977 0.159619 -0.21674 -0.116363 
236 1 1 24.4777 31.8657 19.1185 -0.0460127 0.0807608 0.142718 
237 1 1 23.4525 31.9834 15.1573 0.106386 -0.0461503 -0.11037 
238 1 1 22.9661 32.4519 14.4112 0.0909374 0.0135496 -0.0206843 
239 1 1 22.308 32.3041 13.6748 0.0223544 0.155682 0.0472451 
240 1 1 21.5449 32.4302 12.9735 -0.0432771 0.0526573 -0.212085 
241 1 1 20.5905 32.4054 12.4487 0.0719959 0.0461063 0.0454005 
242 1 1 19.6013 32.5186 12.109 -0.151484 -0.23272 -0.060305 
243 1 1 18.5644 32.6842 11.833 -0.0238554 0.157786 -0.134528 
244 1 1 24.3204 32.2235 17.5437 0.00827306 0.0212284 -0.00993354 
245 1 1 24.2771 32.5186 18.5687 0.0146175 0.07747 -0.149841 
246 1 1 23.7655 32.4475 16.0141 0.0310017 -0.144913 0.074911 
247 1 1 23.8915 32.8297 16.8458 -0.0197782 0.023857 0.0217909 
248 1 1 16.9829 29.3127 21.9363 -0.126854 0.0323401 -0.00457948 
249 1 1 16.4615 29.3483 21.4631 0.0471351 0.0114507 -0.0481606 
250 1 1 15.494 29.2271 20.2148 0.0524231 0.0750571 0.0197638 
251 1 1 15.9299 29.6458 21.0427 0.174014 0.0630371 0.0338763 
252 1 1 14.9703 29.7753 19.4991 0.0767365 -0.0736222 0.00572471 
253 1 1 14.8585 29.4283 18.6955 -0.0709934 -0.0244475 -0.0135286 
254 1 1 17.597 32.9916 11.7663 0.123992 0.0803142 -0.0313604 
255 1 1 16.9306 32.3674 12.1411 -0.0637602 0.112809 -0.0759701 
256 1 1 16.3678 31.8183 12.6981 0.00475804 0.0715324 0.0588094 
257 1 1 14.5152 29.9314 18.0698 0.0402519 0.104903 0.0596529 
258 1 1 14.5919 29.7876 17.2015 0.0493984 -0.121909 -0.0349956 
259 1 1 14.7632 29.621 16.5439 -0.0480365 -0.047003 0.0157852 
260 1 1 14.8706 29.94 15.6965 0.0378203 0.0644487 0.0474997 
261 1 1 15.146 30.3046 14.908 -0.170049 0.0761285 0.0772742 
262 1 1 15.4645 30.7169 14.1555 0.283553 0.00782571 0.124905 
263 1 1 15.8691 31.2382 13.3402 -0.0284885 0.108285 0.0430922 
264 1 1 17.3216 29.9083 22.2829 0.0971674 -0.139285 -0.134171 
265 1 1 18.0429 30.2044 22.6305 -0.0587744 0.00833933 0.127082 
266 1 1 18.8822 30.6531 22.8941 -0.0424707 -0.0533834 -0.175148 
267 1 1 22.3356 31.9033 22.2002 -0.0315218 -0.00387019 0.167975 
268 1 1 21.4496 31.7035 22.6786 -0.296332 0.0398409 0.0125899 
269 1 1 20.6471 31.5283 22.8333 0.125961 -0.047673 -0.0229594 
270 1 1 19.8118 31.1418 22.9223 0.0125395 0.0944288 0.00880615 
271 1 1 23.4412 32.0194 21.2439 -0.123191 -0.0420715 -0.0680175 
272 1 1 23.7178 32.2776 20.6604 0.197963 -0.0220881 -0.105888 
273 1 1 22.9078 32.3108 21.6266 0.132128 0.0167105 0.0601342 
274 1 1 23.6126 32.8735 20.3294 -0.0943862 -0.0848056 -0.0608846 
275 1 1 24.0197 32.7414 19.4285 0.0992265 0.120466 -0.102336 
276 1 1 23.2428 32.9254 15.3333 -0.10627 0.248379 -0.015661 
277 1 1 22.9233 33.2724 14.7467 0.00727704 0.101361 -0.143627 
278 1 1 22.5004 33.3115 14.0323 0.0455391 -0.0686567 -0.0951786 
279 1 1 21.8682 33.2731 13.3675 -0.0842051 -0.0458875 0.0415188 
280 1 1 21.1107 33.2243 12.6229 -0.0457265 -0.0436374 -0.10847 
281 1 1 20.2331 33.2207 12.1449 0.0831448 -0.0573692 0.0121263 
282 1 1 19.175 33.3411 11.7296 0.022756 -0.0750163 -0.00975725 
283 1 1 18.1617 33.583 11.5116 0.0756887 -0.0304579 -0.0259154 
284 1 1 23.9722 33.0516 17.7138 0.00149374 0.0604468 -0.0679209 
285 1 1 23.8401 33.3061 18.5967 -0.0720749 -0.172479 -0.0171766 
286 1 1 23.4707 33.3439 16.1112 -0.0365853 -0.0766116 -0.00943904 
287 1 1 23.629 33.5702 17.015 -0.0222089 -0.0876402 -0.193324 
288 1 1 16.5791 30.0724 21.742 -0.0472546 0.16215 0.138378 
289 1 1 15.3956 30.0356 20.4488 0.0257367 -0.0131509 -0.0469612 
290 1 1 15.8572 30.3375 21.0579 -0.155378 0.0155996 -0.144992 
291 1 1 17.114 33.8358 11.5265 0.0612605 0.140358 0.0181318 
292 1 1 14.8421 30.6456 19.8229 0.0662573 -0.0483215 -0.0239459 
293 1 1 14.596 30.3626 18.9158 0.0891663 0.222659 -0.0362754 
294 1 1 16.5348 33.1689 11.9433 0.106808 -0.0541065 -0.115315 
295 1 1 15.9615 32.5901 12.4448 0.0748286 -0.0336442 -0.217306 
296 1 1 15.4858 32.0553 13.0873 -0.0144538 0.00489557 -0.167695 
297 1 1 14.2736 30.861 18.1852 -0.0236854 0.19521 0.0349936 
298 1 1 14.3608 30.4032 17.5583 0.204446 0.185942 -0.150034 
299 1 1 14.3584 30.4068 16.5535 -0.00193268 0.149636 0.0990869 
300 1 1 14.4963 30.7693 15.5254 -0.000275675 0.0441819 0.0512997 
301 1 1 14.7681 31.1619 14.6808 0.0880955 0.0359066 0.0253522 
302 1 1 15.0924 31.5447 13.8431 0.177987 -0.0610191 0.0658483 
303 1 1 18.9644 31.5535 22.7732 0.148674 -0.049065 -0.0809128 
304 1 1 17.2626 30.5342 22.2796 -0.0106174 0.0428142 0.136245 
305 1 1 18.0633 31.1133 22.599 -0.150023 0.191728 0.221856 
306 1 1 22.4235 32.7499 21.8066 -0.0625705 0.0853287 -0.12503 
307 1 1 21.6297 32.5411 22.3 -0.128266 -0.151127 0.121061 
308 1 1 20.6985 32.3475 22.6747 -0.0180467 0.108324 0.0249921 
309 1 1 19.8674 32.0061 22.7948 0.0406276 -0.179554 -0.150834 
310 1 1 23.0983 32.9268 21.0574 -0.0402933 -0.0146178 0.0382967 
311 1 1 23.1138 33.4751 20.3015 -0.125923 -0.301828 0.0856681 
312 1 1 23.4909 33.5464 19.4654 0.0482864 -0.0919538 -0.222407 
313 1 1 23.0224 33.8632 15.3844 -0.194905 0.0742271 0.0812117 
314 1 1 22.6388 33.9944 14.5072 0.0344632 0.083349 -0.0355516 
315 1 1 22.1456 34.1065 13.6427 0.0183118 -0.0551705 -0.13407 
316 1 1 21.4657 34.0358 12.9556 0.179518 -0.0150302 0.11036 
317 1 1 20.7249 34.1421 12.2849 -0.0992785 -0.103149 0.107952 
318 1 1 19.8294 34.0374 11.7885 0.0488271 0.0629066 -0.0215542 
319 1 1 18.8431 34.3146 11.3897 -0.0288601 0.0404424 -0.148163 
320 1 1 17.8229 34.4402 11.234 -0.0124556 -0.109419 0.0185218 
321 1 1 23.5953 33.8876 17.835 0.176694 -0.101464 0.017853 
322 1 1 23.4118 33.9664 18.5222 -0.0901642 0.0677366 -0.13509 
323 1 1 23.1784 34.1964 16.4006 -0.095932 0.0833246 -0.00251744 
324 1 1 23.3595 34.1689 17.1639 -0.229753 -0.0293819 -0.0651836 
325 1 1 16.7563 31.0516 21.8892 0.041272 -0.018297 0.169254 
326 1 1 16.2289 30.9979 21.5013 -0.117545 -0.0178906 -0.0988226 
327 1 1 15.4359 31.0259 20.6995 -0.138054 -0.0664785 -0.0624873 
328 1 1 14.813 31.324 19.8974 0.140068 -0.0464061 -0.0230853 
329 1 1 16.7108 34.6401 11.2371 0.0075285 -0.0187254 -0.104036 
330 1 1 16.1141 34.1069 11.6387 -0.0388921 0.0723997 -0.176532 
331 1 1 14.434 31.1999 19.1357 0.00361342 0.08432 -0.0423654 
332 1 1 15.5988 33.5032 12.1088 0.00373734 0.129894 0.0942775 
333 1 1 15.0858 32.8981 12.6958 0.0177172 -0.247126 -0.0975983 
334 1 1 14.6975 32.4519 13.4473 -0.0918477 0.147874 0.00957895 
335 1 1 14.0323 31.5208 18.2782 -0.0889219 0.0343618 0.00871048 
336 1 1 13.958 31.3042 17.3094 -0.0457883 -0.0101661 -0.175425 
337 1 1 14.0053 31.355 16.1926 -0.162517 -0.141675 0.0909546 
338 1 1 14.1257 31.6945 15.2665 0.154064 -0.165591 -0.0251077 
339 1 1 14.3455 32.0206 14.2758 0.0320578 -0.0309503 -0.21516 
340 1 1 22.268 33.3564 21.4687 0.049475 -0.118329 -0.0924655 
341 1 1 19.04 32.4944 22.6363 -0.118343 0.155734 -0.307544 
342 1 1 18.2712 32.1377 22.5588 -0.0934718 0.0350801 0.0401561 
343 1 1 17.3429 31.6381 22.1759 -0.0686267 -0.13533 0.0160941 
344 1 1 21.6725 33.3085 21.8452 0.10064 0.0273276 0.0906439 
345 1 1 20.8313 33.1365 22.2935 0.0861788 0.0575438 0.183589 
346 1 1 19.9443 32.9075 22.468 0.107284 -0.0951663 -0.0519345 
347 1 1 19.1848 33.389 22.3855 -0.0818933 -0.137204 -0.157633 
348 1 1 22.6239 33.6876 20.8249 -0.0292863 0.0102102 0.0212976 
349 1 1 22.8108 34.053 19.9733 0.148789 0.0866105 0.0557748 
350 1 1 22.9376 34.4681 19.0822 -0.00512445 0.0269806 -0.0016088 
351 1 1 22.8392 34.6525 15.9118 0.0366943 0.0279594 0.012857 
352 1 1 22.6292 34.6791 15.082 -0.0475105 -0.0360979 0.00405166 
353 1 1 22.2693 34.9072 14.2407 0.172191 -0.0561512 0.143937 
354 1 1 21.7698 34.9019 13.3492 -0.111306 0.133688 0.0349818 
355 1 1 21.0999 34.9681 12.6085 0.0409757 -0.0685899 -0.0671507 
356 1 1 20.2809 34.9953 11.964 0.00801925 0.0776099 0.0973319 
357 1 1 19.4979 35.0589 11.4739 0.0760031 0.0219209 0.0522916 
358 1 1 18.4487 35.1309 11.14 -0.0650051 0.014169 -0.0613445 
359 1 1 17.4021 35.3251 11.0363 0.110079 0.154736 0.0897625 
360 1 1 23.1063 34.8063 17.9422 0.0218801 0.10257 -0.00419931 
361 1 1 22.8913 35.0461 16.758 -0.0268017 -0.020297 -0.0657184 
362 1 1 16.5316 31.8409 21.6915 -0.0991384 0.0769164 -0.0101457 
363 1 1 15.8131 31.8573 21.1325 -0.00368038 -0.0510164 0.0796758 
364 1 1 15.0717 31.9708 20.4209 0.0226002 0.0186873 0.0276377 
365 1 1 14.4453 31.9841 19.6426 0.169681 0.157408 0.020499 
366 1 1 16.3878 35.5493 10.9452 -0.119077 -0.230728 0.00652041 
367 1 1 15.7312 34.9969 11.2407 0.0795434 -0.116301 0.0051894 
368 1 1 15.1341 34.4009 11.8343 0.0180742 0.0212773 -0.144958 
369 1 1 13.9941 32.1269 18.8029 -0.0473413 -0.0542539 -0.0793166 
370 1 1 14.6909 33.7651 12.4285 -0.0293275 0.125667 -0.0683364 
371 1 1 14.2561 33.2826 13.234 0.0970349 -0.0464616 -0.128047 
372 1 1 13.9976 32.8283 14.0447 -0.161175 0.0481434 0.0541097 
373 1 1 13.7335 32.1243 17.9121 -0.138568 0.0369192 0.0183592 
374 1 1 13.6073 32.1143 16.902 0.0416411 0.0768154 0.117054 
375 1 1 13.5822 32.2762 15.9975 -0.0274644 -0.0296499 -0.190026 
376 1 1 13.7643 32.5385 14.9649 0.0761687 -0.0307354 -0.0656888 
377 1 1 21.8356 34.1322 21.2298 -0.0965669 -0.0525672 -0.187538 
378 1 1 18.3398 33.0381 22.388 -0.140473 0.0921454 -0.0718019 
379 1 1 17.7217 32.6143 22.2721 0.044507 0.0331242 -0.0720927 
380 1 1 16.9367 32.7017 21.8387 -0.0918251 0.0829603 0.212405 
381 1 1 20.9272 34.0032 21.8135 0.131308 -0.0615337 0.0415686 
382 1 1 20.11 33.734 22.2141 -0.11582 -0.125219 -0.154027 
383 1 1 19.2842 34.1738 22.18 0.0156236 -0.0386665 -0.194162 
384 1 1 18.552 33.7611 22.2672 0.01517 -0.00233235 0.110537 
385 1 1 22.1917 34.5463 20.3995 -0.0360435 0.0230415 0.0824457 
386 1 1 22.4478 34.8606 19.5116 0.184793 -0.235698 0.106352 
387 1 1 22.5604 35.3376 18.61 -0.05486 -0.0847467 -0.0783774 
388 1 1 22.5674 35.3002 15.7502 0.0439952 -0.0178128 0.02435 
389 1 1 22.2794 35.5046 14.9301 0.0302687 0.153463 -0.0506417 
390 1 1 21.9957 35.7167 13.9969 -0.00901593 -0.172148 0.180047 
391 1 1 21.4536 35.8323 13.063 0.0160751 -0.120468 -0.140921 
392 1 1 20.6469 35.7886 12.2804 0.187153 0.0236785 0.0282612 
393 1 1 19.9422 35.8563 11.7002 2.23869e-05 -0.146623 0.0394938 
394 1 1 19.0254 35.887 11.2277 0.158254 -0.185736 0.0657867 
395 1 1 18.0572 36.0375 10.8541 0.12051 -0.0390602 0.020704 
396 1 1 17.053 36.1497 10.7707 0.0525301 -0.0901204 0.0587505 
397 1 1 22.5606 35.6495 17.6036 0.163478 0.0540971 -0.0519779 
398 1 1 22.4806 35.8803 16.5229 -0.0797613 0.0792811 0.0421585 
399 1 1 16.183 32.6979 21.3772 -0.00278389 0.0431159 0.0161288 
400 1 1 15.3723 32.69 20.8323 0.0479734 0.0966673 0.112723 
401 1 1 14.686 32.8336 20.1424 0.0829706 0.185576 -0.0367332 
402 1 1 16.1158 36.4599 10.81 -0.000917072 0.00990018 -0.050571 
403 1 1 14.1406 32.8354 19.3741 -0.197786 0.157811 0.0196367 
404 1 1 15.4242 35.9614 11.1069 -0.199744 0.14703 0.105408 
405 1 1 14.8237 35.293 11.5375 -0.014529 -0.0181752 0.00399023 
406 1 1 14.3032 34.6441 12.1858 -0.142986 0.0978404 0.182824 
407 1 1 13.6906 32.8823 18.5275 -0.0960315 -0.174803 -0.139875 
408 1 1 13.8146 34.1296 12.9235 -0.0388075 -0.0180287 0.034207 
409 1 1 13.5681 33.6626 13.7337 0.0631361 0.138271 -0.0600304 
410 1 1 13.4356 33.3541 14.698 0.0874671 0.0622077 -0.116861 
411 1 1 13.4233 32.8865 17.6236 -0.0564625 0.0609092 -0.250435 
412 1 1 13.261 33.0515 16.7328 -0.0802645 0.0715989 0.09382 
413 1 1 13.2557 33.1648 15.7231 -0.165777 -0.0105836 0.050521 
414 1 1 20.9338 34.5901 21.414 0.0396478 -0.00256036 0.0455389 
415 1 1 21.3359 35.0309 20.8546 -0.113819 -0.0658051 0.0689056 
416 1 1 17.5674 33.5691 22.0616 0.00489031 0.0181601 -0.032051 
417 1 1 16.6322 33.6773 21.6528 -0.158758 -0.120078 -0.0215266 
418 1 1 20.1711 34.605 21.7221 -0.0302665 0.164409 0.0143949 
419 1 1 19.277 34.8865 21.8498 -0.001354 -0.117585 -0.12228 
420 1 1 18.3022 34.6204 21.988 0.021877 -0.0996657 -0.0947986 
421 1 1 21.7306 35.3435 20.0982 -0.265563 0.105215 0.00601546 
422 1 1 22.0383 35.7282 19.3002 -0.108731 0.000750254 0.00696345 
423 1 1 22.1399 36.1329 18.3344 -0.288491 0.0399567 -0.0644962 
424 1 1 22.2219 36.1856 15.5167 -0.065177 -0.092119 0.0616748 
425 1 1 22.0297 36.4031 14.5557 -0.0317012 -0.143795 -0.0365587 
426 1 1 21.6823 36.5795 13.6043 0.118172 0.108277 0.0598038 
427 1 1 21.0547 36.6639 12.7591 -0.0457648 -0.0395835 -0.0622573 
428 1 1 20.3415 36.6961 12.1247 0.0684619 0.241473 0.221725 
429 1 1 16.7599 37.0894 10.5629 -0.00176045 0.112365 -0.148659 
430 1 1 19.5169 36.6583 11.4392 0.237971 0.113526 0.0930623 
431 1 1 18.6476 36.7983 10.8996 0.0974618 0.079232 0.0506959 
432 1 1 17.7544 36.9042 10.6526 0.0716633 0.118015 -0.141141 
433 1 1 22.1704 36.466 17.2909 0.0911826 -0.123432 0.0463137 
434 1 1 22.1398 36.7721 16.2612 -0.0855334 -0.063805 -0.158477 
435 1 1 15.8364 33.5067 21.1687 -0.0709046 0.0410914 0.176508 
436 1 1 15.0595 33.5854 20.5244 0.0330583 -0.0540101 0.0352151 
437 1 1 14.3412 33.648 19.8206 -0.0892612 -0.0446983 0.153192 
438 1 1 15.7422 37.4036 10.5367 0.064825 -0.0505452 0.119215 
439 1 1 15.0202 36.8493 10.8391 -0.0606275 -0.0337615 0.0606007 
440 1 1 13.6952 33.6326 19.0289 -0.138755 -0.0556351 -0.190738 
441 1 1 14.472 36.2015 11.3694 -0.143626 -0.234417 0.00807913 
442 1 1 13.9534 35.4926 11.9663 -0.0296298 -0.0200118 0.00421855 
443 1 1 13.4727 35.0389 12.7331 0.021356 -0.133938 0.0861452 
444 1 1 13.2834 33.8002 18.1985 -0.00861946 0.0754924 -0.129026 
445 1 1 13.1528 34.4593 13.5488 -0.0214346 -0.13819 0.0613145 
446 1 1 12.9006 34.1869 14.3979 0.135818 0.156199 0.0168228 
447 1 1 12.8051 34.0141 15.3722 -0.0527137 0.0960543 0.219845 
448 1 1 13.0195 33.7971 17.3304 0.0177117 -0.0963822 0.059344 
449 1 1 12.8132 33.8284 16.3124 0.0361563 -0.0921749 -0.114502 
450 1 1 20.5398 35.2555 21.2401 -0.0342746 -0.0666829 0.0769697 
451 1 1 21.0312 35.854 20.5286 0.0188038 -0.0897237 -0.170549 
452 1 1 17.2703 34.5142 21.8343 -0.132919 0.153207 0.00471215 
453 1 1 16.3036 34.4297 21.4138 0.118296 -0.0403413 0.1049 
454 1 1 19.6772 35.4479 21.4339 0.072101 0.129731 0.199924 
455 1 1 18.7783 35.5036 21.6512 0.0775545 -0.0655176 -0.263713 
456 1 1 17.8398 35.4536 21.721 -0.180918 -0.0400574 -0.0234069 
457 1 1 21.4248 36.2077 19.7421 0.0618622 -0.179506 -0.0408834 
458 1 1 21.6599 36.6345 18.9313 0.0189652 -0.0628731 -0.0802732 
459 1 1 21.7691 37.0052 18.0093 0.00362442 -0.0593697 0.138638 
460 1 1 21.9647 37.0554 15.2685 0.0881912 -0.0048608 -0.0392267 
461 1 1 21.705 37.2646 14.2965 0.0204839 -0.105955 0.0275624 
462 1 1 21.252 37.4092 13.433 -0.155104 0.0797286 -0.0546393 
463 1 1 20.6544 37.5078 12.5764 0.0619774 -0.0376826 0.0378019 
464 1 1 19.9939 37.5271 11.8442 -0.0525874 0.0822546 0.099119 
465 1 1 16.3672 38.0087 10.3106 0.199638 0.0108735 0.123672 
466 1 1 17.3596 37.7717 10.4087 -0.0547605 0.177456 -0.00833033 
467 1 1 19.2379 37.5764 11.2301 -0.0445614 -0.0347217 0.0408548 
468 1 1 18.3963 37.7591 10.6934 0.145806 -0.229552 -0.0735046 
469 1 1 21.8445 37.3836 16.9638 0.0770479 -0.00453289 0.292727 
470 1 1 21.7173 37.6346 15.8826 0.124066 0.157831 -0.202964 
471 1 1 15.5033 34.4324 20.8556 -0.131876 0.05678 0.0444479 
472 1 1 14.6949 34.5218 20.2733 -0.0775335 0.00348563 -0.129582 
473 1 1 13.9327 34.4598 19.5632 0.0793642 -0.0195529 0.0308544 
474 1 1 15.3218 38.2691 10.2325 0.0638387 -0.0904277 0.00890999 