ITEM: TIMESTEP
100000000
ITEM: NUMBER OF ATOMS
94148
ITEM: BOX BOUNDS pp pp pp
0 62
0 62
0 62
ITEM: ATOMS id mol type x y z 
1 1 1 4.06461 31.5224 28.0328 
2 1 1 4.75119 30.9888 28.3134 
3 1 1 4.9325 31.8192 27.92 
4 1 1 5.62323 31.2367 28.1884 
5 1 1 4.20327 32.298 27.5171 
6 1 1 5.72943 32.1282 27.602 
7 1 1 6.51675 31.5615 27.803 
8 1 1 3.87232 30.5922 28.2762 
9 1 1 4.55654 29.9813 28.5174 
10 1 1 5.41384 30.2933 28.5371 
11 1 1 6.25983 30.6295 28.3727 
12 1 1 7.06402 30.7077 28.0919 
13 1 1 3.27507 31.2523 27.866 
14 1 1 3.4932 31.9351 27.541 
15 1 1 3.52441 32.5212 27.0161 
16 1 1 5.0117 32.7057 27.3271 
17 1 1 4.21479 33.0718 26.8667 
18 1 1 7.33888 31.3091 27.6758 
19 1 1 7.25836 32.0037 27.2281 
20 1 1 6.56686 32.3735 27.1826 
21 1 1 5.87661 32.9529 26.9754 
22 1 1 2.66842 30.8367 27.6043 
23 1 1 3.14075 30.2081 28.0623 
24 1 1 3.82498 29.6134 28.2965 
25 1 1 4.33191 28.971 28.4527 
26 1 1 5.25683 29.3572 28.5622 
27 1 1 6.15382 29.601 28.5606 
28 1 1 7.93793 30.7182 27.6709 
29 1 1 6.98793 29.8585 28.4044 
30 1 1 7.75529 30.0145 28.0484 
31 1 1 2.70582 31.8024 27.0475 
32 1 1 2.89894 32.6466 26.5593 
33 1 1 3.5135 33.2045 26.3077 
34 1 1 5.10074 33.5426 26.5648 
35 1 1 4.22874 33.7302 26.1214 
36 1 1 7.96299 31.485 27.2197 
37 1 1 8.02483 32.1478 26.7375 
38 1 1 8.5788 30.8539 27.1359 
39 1 1 7.32314 32.7668 26.6356 
40 1 1 6.68185 33.2007 26.4945 
41 1 1 5.88984 33.663 26.0891 
42 1 1 2.18125 30.9528 27.0199 
43 1 1 2.12974 30.1576 27.2409 
44 1 1 2.56041 29.6456 27.6513 
45 1 1 3.14072 29.3173 28.076 
46 1 1 3.43523 28.6037 28.1671 
47 1 1 3.98112 27.992 28.3167 
48 1 1 4.99732 28.3505 28.5244 
49 1 1 5.9273 28.6111 28.5476 
50 1 1 6.786 28.8616 28.4669 
51 1 1 8.52986 30.0504 27.5912 
52 1 1 7.58637 29.0934 28.2403 
53 1 1 8.21799 29.426 27.867 
54 1 1 2.02814 31.4974 26.4792 
55 1 1 1.59078 30.694 26.1406 
56 1 1 2.26659 32.2256 26.2777 
57 1 1 2.69693 32.9675 25.8507 
58 1 1 1.79154 32.0372 25.6882 
59 1 1 3.43927 33.6465 25.5217 
60 1 1 5.06064 34.0205 25.6484 
61 1 1 4.12299 34.0775 25.1838 
62 1 1 7.97926 32.7624 26.1953 
63 1 1 8.62736 31.6079 26.6183 
64 1 1 8.64426 32.3132 26.063 
65 1 1 9.10022 30.0872 26.9919 
66 1 1 9.19152 30.9725 26.4762 
67 1 1 7.4062 33.2722 25.9224 
68 1 1 6.74887 33.814 25.6162 
69 1 1 5.86678 34.1509 25.2095 
70 1 1 1.70561 30.0395 26.6064 
71 1 1 1.96489 29.3686 26.9851 
72 1 1 2.66945 28.6436 27.6256 
73 1 1 3.17665 27.6937 27.8258 
74 1 1 3.82085 27.1212 27.9724 
75 1 1 4.69425 27.4263 28.2374 
76 1 1 5.66385 27.6064 28.3505 
77 1 1 6.60419 27.9726 28.3292 
78 1 1 7.43508 28.2189 28.1603 
79 1 1 8.83309 29.3069 27.3427 
80 1 1 8.34142 28.5016 27.742 
81 1 1 9.41573 29.3412 26.6149 
82 1 1 1.31153 29.7972 25.7676 
83 1 1 1.43244 31.3021 25.5573 
84 1 1 1.24774 30.5108 25.4123 
85 1 1 2.04672 32.6706 25.3758 
86 1 1 2.65363 33.4009 25.0039 
87 1 1 1.48748 32.0575 24.9585 
88 1 1 3.30481 33.9441 24.5888 
89 1 1 4.94115 34.2792 24.7084 
90 1 1 4.02738 34.1957 24.172 
91 1 1 8.2528 33.1107 25.4251 
92 1 1 9.20152 31.7004 25.8102 
93 1 1 9.04766 32.4626 25.3214 
94 1 1 9.62829 30.2337 26.2378 
95 1 1 9.71933 31.0065 25.6651 
96 1 1 7.57503 33.742 25.0982 
97 1 1 6.7183 34.2277 24.7668 
98 1 1 5.67898 34.403 24.1936 
99 1 1 1.55779 29.1403 26.2069 
100 1 1 1.8972 28.384 26.7392 
101 1 1 2.41725 27.6093 27.0948 
102 1 1 2.9906 26.8375 27.352 
103 1 1 4.4994 26.6519 27.9519 
104 1 1 3.86348 26.3426 27.674 
105 1 1 5.43515 26.6696 27.9447 
106 1 1 6.50242 27.1141 28.0367 
107 1 1 7.28355 27.4398 27.9076 
108 1 1 8.02135 27.6741 27.6366 
109 1 1 9.88045 29.4364 25.8512 
110 1 1 9.07187 28.5337 27.01 
111 1 1 8.6255 27.6768 27.1823 
112 1 1 9.63112 28.5403 26.1871 
113 1 1 0.995659 29.9655 24.8843 
114 1 1 1.11861 29.1346 25.3226 
115 1 1 1.08557 31.005 24.5576 
116 1 1 0.826418 30.2365 23.986 
117 1 1 1.93625 32.7605 24.496 
118 1 1 2.47896 33.4042 24.04 
119 1 1 1.32245 32.0002 23.9991 
120 1 1 3.23644 33.9114 23.6437 
121 1 1 4.76741 34.3772 23.6626 
122 1 1 3.85145 34.1696 23.1958 
123 1 1 8.21608 33.5312 24.4154 
124 1 1 8.77257 33.0593 24.6775 
125 1 1 9.6193 31.8306 25.0281 
126 1 1 9.35103 32.5838 24.4787 
127 1 1 10.1501 30.2277 25.391 
128 1 1 10.1132 30.9976 24.8317 
129 1 1 10.4691 29.5272 25.0813 
130 1 1 5.52512 34.4745 23.2158 
131 1 1 7.47884 34.0154 24.2442 
132 1 1 6.49116 34.4313 23.4715 
133 1 1 1.3894 28.3118 25.8041 
134 1 1 1.71131 27.6154 26.3275 
135 1 1 3.28528 26.0478 27.1454 
136 1 1 2.26771 26.8609 26.6385 
137 1 1 2.62765 26.1252 26.5945 
138 1 1 4.64558 25.9585 27.5547 
139 1 1 3.97816 25.6489 27.1456 
140 1 1 5.48117 25.7707 27.3846 
141 1 1 6.362 26.2921 27.5943 
142 1 1 7.13073 26.7381 27.5656 
143 1 1 7.91489 26.9021 27.244 
144 1 1 10.18 28.6118 25.468 
145 1 1 9.20741 27.7464 26.518 
146 1 1 8.71036 27.0866 26.6829 
147 1 1 9.81711 27.7503 25.7507 
148 1 1 0.8423 29.2677 24.3851 
149 1 1 1.01587 28.2857 24.8388 
150 1 1 0.934734 31.2182 23.5165 
151 1 1 0.651807 29.4071 23.5838 
152 1 1 0.66832 30.3655 23.0042 
153 1 1 1.77206 32.7211 23.529 
154 1 1 2.47909 33.291 23.0612 
155 1 1 1.30574 31.9786 23.022 
156 1 1 3.22165 33.777 22.679 
157 1 1 4.62135 34.2996 22.7371 
158 1 1 3.89377 34.0696 22.3937 
159 1 1 8.04099 33.7261 23.6949 
160 1 1 8.84201 33.1753 23.7164 
161 1 1 9.53526 32.5413 23.652 
162 1 1 9.9531 31.8385 24.0607 
163 1 1 10.5291 30.2613 24.5515 
164 1 1 10.4485 30.9465 24.134 
165 1 1 10.7398 28.8299 24.7782 
166 1 1 10.8429 29.5348 24.3938 
167 1 1 6.08819 34.4529 22.6564 
168 1 1 5.31915 34.3864 22.3266 
169 1 1 7.45837 34.0557 23.1162 
170 1 1 6.818 34.26 22.4237 
171 1 1 1.28744 27.4605 25.2881 
172 1 1 1.66989 26.77 25.7144 
173 1 1 3.28389 25.5155 26.6208 
174 1 1 2.16696 26.0612 25.9234 
175 1 1 2.7393 25.5504 26.0493 
176 1 1 3.9755 25.0752 26.5043 
177 1 1 4.72343 25.3293 26.9563 
178 1 1 5.57173 25.0581 26.72 
179 1 1 6.42349 25.5542 27.0635 
180 1 1 7.17549 26.0763 27.1627 
181 1 1 7.88654 26.0773 26.7429 
182 1 1 8.51489 26.3634 26.4979 
183 1 1 10.4864 27.8506 25.0647 
184 1 1 11.0541 28.1701 24.3922 
185 1 1 9.35349 26.9044 26.058 
186 1 1 10.063 27.143 25.3154 
187 1 1 0.756935 28.4869 23.9099 
188 1 1 0.95972 27.5126 24.2897 
189 1 1 0.956464 31.2195 22.5912 
190 1 1 0.801893 30.6353 22.0328 
191 1 1 0.531874 28.6761 23.1719 
192 1 1 0.518968 29.3053 22.7491 
193 1 1 0.643124 29.9021 22.2346 
194 1 1 1.89936 32.6667 22.4812 
195 1 1 2.61565 33.1979 22.0326 
196 1 1 1.43306 31.9846 22.0949 
197 1 1 3.55195 33.7076 21.6236 
198 1 1 4.52646 34.1436 21.8218 
199 1 1 8.23986 33.6373 22.9507 
200 1 1 8.75352 33.1585 22.7069 
201 1 1 9.3951 32.6456 22.9162 
202 1 1 9.91261 32.0944 23.1307 
203 1 1 10.4841 31.2054 23.2797 
204 1 1 10.9337 30.2383 23.5824 
205 1 1 11.3266 29.0349 23.7985 
206 1 1 5.99694 34.3013 21.8118 
207 1 1 5.19008 34.1585 21.3144 
208 1 1 7.61253 33.9236 22.187 
209 1 1 6.76296 34.0884 21.5165 
210 1 1 1.38018 26.6916 24.816 
211 1 1 1.8011 26.0186 25.102 
212 1 1 3.33496 25.0205 25.9164 
213 1 1 2.50562 25.2801 25.2316 
214 1 1 3.97339 24.6077 25.678 
215 1 1 4.74143 24.7245 26.2535 
216 1 1 11.4771 28.045 23.6852 
217 1 1 11.06 27.378 24.2963 
218 1 1 5.59205 24.4734 26.0415 
219 1 1 6.44307 24.8101 26.351 
220 1 1 7.32184 25.3089 26.5029 
221 1 1 8.26084 25.5589 26.1487 
222 1 1 8.99993 25.9687 25.7661 
223 1 1 10.5667 26.8428 24.7584 
224 1 1 9.85233 26.3372 25.2834 
225 1 1 1.08033 26.75 23.8287 
226 1 1 0.675639 27.7259 23.2355 
227 1 1 1.19999 31.306 21.5086 
228 1 1 1.02786 30.6033 21.245 
229 1 1 0.794708 29.8578 21.4688 
230 1 1 0.615881 28.4769 22.4374 
231 1 1 0.675862 29.1919 21.8771 
232 1 1 2.07358 32.5066 21.5541 
233 1 1 2.80666 32.928 21.1659 
234 1 1 1.78599 31.8316 21.0677 
235 1 1 3.5374 33.2642 20.6076 
236 1 1 4.35223 33.8189 20.9803 
237 1 1 8.34946 33.4858 22.0662 
238 1 1 9.05897 32.9132 21.9225 
239 1 1 9.80144 32.2119 22.2168 
240 1 1 10.3911 31.519 22.4274 
241 1 1 10.9352 30.6315 22.5739 
242 1 1 11.3653 29.7153 22.8361 
243 1 1 11.709 28.7242 22.9845 
244 1 1 6.01488 34.0519 20.9359 
245 1 1 5.1388 33.7746 20.5054 
246 1 1 7.58355 33.743 21.2767 
247 1 1 6.87798 33.6688 20.6787 
248 1 1 1.51302 26.0462 24.2109 
249 1 1 2.02648 25.5141 24.4681 
250 1 1 3.18433 24.7705 25.0224 
251 1 1 2.67691 24.9959 24.3386 
252 1 1 4.06377 24.358 24.8351 
253 1 1 4.83873 24.2824 25.4413 
254 1 1 11.9468 27.6029 23.0004 
255 1 1 11.5071 27.0405 23.6694 
256 1 1 11.0209 26.3747 24.1076 
257 1 1 5.67992 24.0353 25.2446 
258 1 1 6.43899 24.2143 25.5708 
259 1 1 7.12655 24.5599 25.8342 
260 1 1 7.95082 24.6957 25.651 
261 1 1 8.67454 25.1082 25.4275 
262 1 1 9.45891 25.5854 25.1018 
263 1 1 10.2768 25.9569 24.6305 
264 1 1 1.51457 26.1287 23.4489 
265 1 1 1.09032 26.7346 22.9562 
266 1 1 0.916452 27.5978 22.3183 
267 1 1 1.63426 31.0167 20.5717 
268 1 1 1.22568 29.9459 20.7585 
269 1 1 1.03334 29.1326 21.1275 
270 1 1 0.880035 28.3552 21.65 
271 1 1 2.4283 32.2936 20.7209 
272 1 1 3.04199 32.6564 20.4212 
273 1 1 2.28384 31.6404 20.344 
274 1 1 3.69219 32.7141 19.9683 
275 1 1 4.40713 33.2694 20.1322 
276 1 1 8.30457 33.2307 21.1137 
277 1 1 8.92846 32.7828 20.8879 
278 1 1 9.60924 32.3254 21.2039 
279 1 1 10.2354 31.7248 21.4742 
280 1 1 10.8803 31.0189 21.7139 
281 1 1 11.4872 30.1448 21.9589 
282 1 1 11.9182 29.2021 22.068 
283 1 1 12.1934 28.2065 22.3117 
284 1 1 6.05783 33.6501 20.1793 
285 1 1 5.32025 33.2975 19.6969 
286 1 1 7.69897 33.3337 20.4088 
287 1 1 6.83177 33.3166 19.9044 
288 1 1 2.11518 25.4578 23.5631 
289 1 1 3.40623 24.5894 24.2469 
290 1 1 2.92239 24.8459 23.6371 
291 1 1 12.4331 27.1415 22.1973 
292 1 1 4.24652 24.0831 23.9383 
293 1 1 4.89276 23.9523 24.5938 
294 1 1 12.0328 26.6242 22.8657 
295 1 1 11.4733 26.0192 23.4667 
296 1 1 10.7986 25.4376 23.9299 
297 1 1 5.78196 23.6681 24.4604 
298 1 1 6.39771 23.7619 24.9509 
299 1 1 7.32437 23.9721 25.1471 
300 1 1 8.31111 24.2602 24.9395 
301 1 1 9.07929 24.6516 24.6639 
302 1 1 9.95954 25.0944 24.3516 
303 1 1 1.40488 27.5451 21.4178 
304 1 1 1.67944 26.0836 22.7011 
305 1 1 1.40673 26.7811 22.0871 
306 1 1 2.31925 30.9828 19.9344 
307 1 1 1.82251 30.1878 20.1658 
308 1 1 1.5304 29.2173 20.4333 
309 1 1 1.36149 28.3242 20.9168 
310 1 1 2.99343 31.9034 19.8839 
311 1 1 3.82317 32.1285 19.3497 
312 1 1 4.547 32.6256 19.3654 
313 1 1 8.51194 32.8389 20.1194 
314 1 1 9.26654 32.3846 20.3124 
315 1 1 10.0021 31.8481 20.5282 
316 1 1 10.6828 31.2248 20.7486 
317 1 1 11.3287 30.5286 21.0635 
318 1 1 11.9612 29.7001 21.195 
319 1 1 12.4181 28.6846 21.4113 
320 1 1 12.7498 27.7463 21.5561 
321 1 1 6.15582 33.1436 19.3404 
322 1 1 5.48697 32.8086 19.049 
323 1 1 7.68901 32.9494 19.5881 
324 1 1 6.9281 32.9675 19.1888 
325 1 1 2.28366 25.5611 22.4898 
326 1 1 2.75275 25.0672 22.8437 
327 1 1 3.5287 24.4165 23.2642 
328 1 1 4.34411 23.8872 23.1612 
329 1 1 12.9844 26.7497 21.4871 
330 1 1 12.4504 26.1568 22.134 
331 1 1 5.09227 23.6376 23.6355 
332 1 1 11.9186 25.5876 22.7173 
333 1 1 11.3105 25.056 23.1863 
334 1 1 10.4994 24.6033 23.6545 
335 1 1 5.93248 23.3432 23.7188 
336 1 1 6.71662 23.373 24.1637 
337 1 1 7.77849 23.6038 24.2558 
338 1 1 8.71529 23.8434 24.1643 
339 1 1 9.62179 24.2345 23.9377 
340 1 1 2.89259 30.9615 19.4703 
341 1 1 1.92179 27.7 20.6269 
342 1 1 1.96486 26.8827 21.1693 
343 1 1 2.09359 26.0773 21.7663 
344 1 1 2.52987 30.2516 19.5456 
345 1 1 2.23138 29.3769 19.7313 
346 1 1 1.97121 28.5144 20.1263 
347 1 1 2.42367 27.8111 19.8959 
348 1 1 3.51569 31.4696 19.139 
349 1 1 4.29906 31.7844 18.8107 
350 1 1 5.23321 32.166 18.6209 
351 1 1 8.28179 32.6336 19.2027 
352 1 1 9.01338 32.3586 19.3826 
353 1 1 9.81311 31.8878 19.575 
354 1 1 10.5329 31.3931 19.8202 
355 1 1 11.3164 30.73 20.0786 
356 1 1 11.9173 30.039 20.3791 
357 1 1 12.4976 29.2234 20.5517 
358 1 1 12.9266 28.2731 20.6917 
359 1 1 13.2884 27.337 20.8587 
360 1 1 6.31943 32.5506 18.4931 
361 1 1 7.5214 32.5152 18.5271 
362 1 1 2.71643 25.2475 21.8879 
363 1 1 3.27991 24.6616 22.2374 
364 1 1 4.07137 23.9529 22.3942 
365 1 1 4.84536 23.5241 22.6289 
366 1 1 13.5211 26.3019 20.7583 
367 1 1 13.024 25.7698 21.3293 
368 1 1 12.4321 25.1816 21.9134 
369 1 1 5.64611 23.1936 22.8865 
370 1 1 11.8392 24.67 22.3923 
371 1 1 11.1007 24.1471 22.9065 
372 1 1 10.2781 23.7739 23.2996 
373 1 1 6.50895 22.9631 23.2895 
374 1 1 7.46368 22.9925 23.4808 
375 1 1 8.34845 23.125 23.5899 
376 1 1 9.33024 23.433 23.4958 
377 1 1 3.33869 30.3581 18.9135 
378 1 1 2.44635 27.0497 20.3984 
379 1 1 2.52995 26.3762 20.8251 
380 1 1 2.90707 25.6412 20.9892 
381 1 1 2.92121 29.3666 19.0856 
382 1 1 2.59428 28.5568 19.4072 
383 1 1 3.03394 27.7943 19.1606 
384 1 1 2.84584 27.1599 19.7233 
385 1 1 4.02345 30.9299 18.4589 
386 1 1 4.94467 31.3895 18.2135 
387 1 1 5.84079 31.7327 17.942 
388 1 1 8.49788 32.292 18.5104 
389 1 1 9.3481 31.9221 18.6405 
390 1 1 10.2881 31.5147 18.8144 
391 1 1 11.0391 30.9786 19.1268 
392 1 1 11.7583 30.2972 19.3362 
393 1 1 12.4012 29.66 19.6258 
394 1 1 12.9435 28.8098 19.8457 
395 1 1 13.4747 27.8251 19.9964 
396 1 1 13.8295 26.9143 20.1052 
397 1 1 6.85661 31.9532 17.8091 
398 1 1 7.89548 31.9593 17.7482 
399 1 1 3.39959 24.8971 21.1713 
400 1 1 3.89628 24.1842 21.5021 
401 1 1 4.61497 23.6113 21.6475 
402 1 1 14.0868 25.9271 20.0694 
403 1 1 5.43063 23.1546 21.9164 
404 1 1 13.5899 25.2967 20.6487 
405 1 1 12.9767 24.7692 21.1894 
406 1 1 12.3613 24.2329 21.7002 
407 1 1 6.19242 22.7478 22.3496 
408 1 1 11.6424 23.6999 22.0892 
409 1 1 10.8596 23.284 22.595 
410 1 1 10.025 22.8905 22.8732 
411 1 1 7.11407 22.528 22.6556 
412 1 1 8.06142 22.4256 22.7543 
413 1 1 9.00638 22.6809 22.9196 
414 1 1 3.4344 29.53 18.511 
415 1 1 3.95044 29.9372 18.0953 
416 1 1 3.10074 26.2907 20.0363 
417 1 1 3.48412 25.4181 20.2128 
418 1 1 3.23567 28.6095 18.6462 
419 1 1 3.52265 27.6953 18.4948 
420 1 1 3.50183 26.8633 19.0304 
421 1 1 4.6202 30.5737 17.8044 
422 1 1 5.41102 30.9331 17.4363 
423 1 1 6.32592 31.3023 17.2363 
424 1 1 8.894 31.8176 17.7394 
425 1 1 9.88992 31.5429 17.9347 
426 1 1 10.8311 31.0479 18.1752 
427 1 1 11.6447 30.5086 18.3505 
428 1 1 12.3406 29.812 18.7109 
429 1 1 14.4451 26.3818 19.4177 
430 1 1 12.9544 29.0864 18.9405 
431 1 1 13.5629 28.2726 19.1063 
432 1 1 14.069 27.3589 19.3518 
433 1 1 7.37582 31.4159 17.1377 
434 1 1 8.43832 31.4616 17.0198 
435 1 1 3.90775 24.5999 20.452 
436 1 1 4.48101 23.8958 20.7463 
437 1 1 5.25602 23.2148 20.983 
438 1 1 14.7075 25.4488 19.3882 
439 1 1 14.2258 24.8738 20.0091 
440 1 1 5.98629 22.6495 21.3821 
441 1 1 13.542 24.3247 20.5478 
442 1 1 12.8375 23.7601 21.0603 
443 1 1 12.1464 23.227 21.4839 
444 1 1 6.79404 22.2457 21.701 
445 1 1 11.3091 22.8238 21.8824 
446 1 1 10.4773 22.3989 22.2381 
447 1 1 9.51596 22.1239 22.2356 
448 1 1 7.62371 22.0335 21.9832 
449 1 1 8.58309 21.9884 22.1108 
450 1 1 3.79318 29.035 17.9729 
451 1 1 4.47884 29.6368 17.4041 
452 1 1 3.71574 25.8984 19.2452 
453 1 1 4.01328 25.0114 19.5162 
454 1 1 3.81679 28.1727 17.8825 
455 1 1 3.95844 27.2384 17.9974 
456 1 1 4.06336 26.3528 18.3393 
457 1 1 5.08741 30.0757 16.9847 
458 1 1 5.96185 30.5926 16.7612 
459 1 1 6.88474 30.802 16.5844 
460 1 1 9.5079 31.3457 17.1262 
461 1 1 10.4238 31.0213 17.2527 
462 1 1 11.3918 30.5454 17.5035 
463 1 1 12.1813 30.0169 17.7487 
464 1 1 12.9332 29.3709 17.9814 
465 1 1 15.0635 25.9601 18.7287 
466 1 1 14.6852 26.915 18.712 
467 1 1 13.604 28.6635 18.26 
468 1 1 14.1767 27.8492 18.5041 
469 1 1 7.93105 30.9599 16.4488 
470 1 1 9.00591 30.9774 16.3819 
471 1 1 4.5059 24.2305 19.805 
472 1 1 5.07761 23.4101 20.0625 
473 1 1 5.75008 22.7316 20.4023 
474 1 1 15.2356 24.9033 18.7914 
475 1 1 14.7642 24.3884 19.2912 
476 1 1 14.1415 23.8766 19.8566 
477 1 1 6.58183 22.1858 20.725 
478 1 1 13.3978 23.3656 20.3805 
479 1 1 12.7039 22.7882 20.6684 
480 1 1 11.8963 22.415 21.1847 
481 1 1 7.411 21.7667 21.0494 
482 1 1 11.0723 22.0061 21.5059 
483 1 1 10.1844 21.7016 21.5449 
484 1 1 9.20846 21.4996 21.4698 
485 1 1 8.25975 21.5084 21.3291 
486 1 1 4.36496 28.6794 17.2542 
487 1 1 4.97821 29.158 16.7324 
488 1 1 4.30397 25.4479 18.5949 
489 1 1 4.70778 24.56 18.8901 
490 1 1 4.32006 27.7369 17.2143 
491 1 1 4.48752 26.7333 17.3628 
492 1 1 4.59601 25.9095 17.6712 
493 1 1 5.68193 29.7155 16.2975 
494 1 1 6.54883 30.068 16.0552 
495 1 1 7.467 30.2739 15.9131 
496 1 1 15.5992 25.3766 18.0731 
497 1 1 10.0435 30.888 16.4262 
498 1 1 10.9726 30.5316 16.5467 
499 1 1 11.9733 30.087 16.8285 
500 1 1 12.8618 29.5264 17.096 
501 1 1 13.6284 28.9125 17.3563 
502 1 1 15.2703 26.4101 18.0462 
503 1 1 14.8268 27.4076 17.8623 
504 1 1 14.2404 28.1846 17.625 
505 1 1 8.52156 30.4765 15.7034 
506 1 1 9.57111 30.5632 15.6601 
507 1 1 15.8663 24.3341 18.1413 
508 1 1 5.13549 23.7513 19.1819 
509 1 1 5.64734 22.8779 19.41 
510 1 1 6.33188 22.3151 19.7397 
511 1 1 15.4193 23.7925 18.7964 
512 1 1 14.7676 23.2849 19.268 
513 1 1 14.0081 22.9216 19.7481 
514 1 1 7.09679 21.7303 20.0291 
515 1 1 13.3021 22.3684 20.0483 
516 1 1 12.4718 21.9444 20.4122 
517 1 1 11.5963 21.5269 20.7179 
518 1 1 7.92669 21.2617 20.3974 
519 1 1 10.7174 21.1862 20.815 
520 1 1 9.79539 21.0461 20.8065 
521 1 1 8.80344 20.9765 20.6159 
522 1 1 4.85913 28.2615 16.6031 
523 1 1 5.50514 28.6762 16.0367 
524 1 1 4.9307 25.0483 17.9073 
525 1 1 5.27226 24.1276 18.1876 
526 1 1 4.8473 27.2487 16.6371 
527 1 1 5.06997 26.3154 16.6737 
528 1 1 5.22177 25.4492 17.0295 
529 1 1 6.23622 29.1628 15.6773 
530 1 1 7.11404 29.6092 15.3643 
531 1 1 8.08502 29.8251 15.1788 
532 1 1 16.1981 24.9129 17.3715 
533 1 1 15.8969 25.9057 17.4079 
534 1 1 10.7052 30.348 15.689 
535 1 1 11.6645 30.0333 15.898 
536 1 1 12.6268 29.5712 16.1724 
537 1 1 13.4985 28.9797 16.4281 
538 1 1 14.2628 28.4098 16.678 
539 1 1 15.4173 26.9023 17.2108 
540 1 1 14.8782 27.6848 16.979 
541 1 1 9.13471 30.0008 15.0553 
542 1 1 10.1043 30.0448 15.0555 
543 1 1 16.44 23.9056 17.4846 
544 1 1 15.9975 23.2664 18.1129 
545 1 1 5.63932 23.2909 18.5036 
546 1 1 6.25966 22.4996 18.7448 
547 1 1 6.92673 21.8046 19.0894 
548 1 1 15.4462 22.7425 18.725 
549 1 1 14.6608 22.3066 19.2011 
550 1 1 13.9385 21.8065 19.4805 
551 1 1 7.67189 21.2269 19.3561 
552 1 1 13.1125 21.3816 19.7342 
553 1 1 12.1104 21.0828 20.0344 
554 1 1 11.2249 20.6532 20.0862 
555 1 1 8.46724 20.7843 19.6559 
556 1 1 10.3298 20.5512 20.1228 
557 1 1 9.43618 20.5601 20.0102 
558 1 1 5.46255 27.706 15.9741 
559 1 1 6.177 28.2674 15.3816 
560 1 1 5.47702 24.5971 17.2732 
561 1 1 5.79085 23.6179 17.585 
562 1 1 5.52356 26.7721 15.9293 
563 1 1 5.66325 25.7945 16.075 
564 1 1 5.81162 24.9103 16.3756 
565 1 1 6.9623 28.705 14.9706 
566 1 1 7.75714 29.1011 14.6955 
567 1 1 8.70454 29.3445 14.5006 
568 1 1 16.7809 24.4833 16.7528 
569 1 1 16.5098 25.4296 16.6705 
570 1 1 16.0132 26.3815 16.5036 
571 1 1 11.1625 29.823 15.0892 
572 1 1 12.2084 29.4986 15.2809 
573 1 1 13.1583 29.1122 15.5047 
574 1 1 14.0659 28.6049 15.7503 
575 1 1 14.7967 27.9919 16.0024 
576 1 1 15.4491 27.2078 16.2516 
577 1 1 9.7881 29.5032 14.3676 
578 1 1 10.7693 29.5318 14.4215 
579 1 1 17.0242 23.514 16.7659 
580 1 1 16.5348 22.8914 17.4078 
581 1 1 16.0361 22.2826 18.0064 
582 1 1 6.2877 22.7875 17.8006 
583 1 1 6.78838 21.9819 18.1463 
584 1 1 7.49931 21.2831 18.4307 
585 1 1 15.3616 21.7565 18.5815 
586 1 1 14.5584 21.3281 18.9063 
587 1 1 13.6836 20.8572 19.1668 
588 1 1 8.2652 20.7273 18.6499 
589 1 1 12.6661 20.5386 19.3819 
590 1 1 11.7627 20.1601 19.4169 
591 1 1 10.8427 20.0006 19.3948 
592 1 1 9.02065 20.2191 19.0373 
593 1 1 9.85023 20.0808 19.3021 
594 1 1 6.10892 27.2839 15.2735 
595 1 1 6.79632 27.7431 14.7979 
596 1 1 6.01279 23.9879 16.6159 
597 1 1 6.3648 23.0892 16.9022 
598 1 1 6.13047 26.213 15.318 
599 1 1 6.20669 25.2442 15.4138 
600 1 1 6.30415 24.3625 15.7397 
601 1 1 7.56905 28.1433 14.3412 
602 1 1 8.38963 28.5556 14.0778 
603 1 1 9.29602 28.7903 13.8829 
604 1 1 17.4728 23.968 16.0811 
605 1 1 17.6881 22.9951 16.0719 
606 1 1 17.9801 23.5765 15.4726 
607 1 1 17.0555 24.9743 15.9686 
608 1 1 16.6 25.8708 15.7638 
609 1 1 16.0606 26.7171 15.5702 
610 1 1 11.7831 29.3636 14.4227 
611 1 1 12.8366 29.1222 14.6203 
612 1 1 13.7747 28.7093 14.878 
613 1 1 14.6792 28.1515 15.0001 
614 1 1 15.4224 27.5407 15.3103 
615 1 1 10.3782 28.9026 13.7644 
616 1 1 11.3873 29.006 13.7705 
617 1 1 17.1588 22.497 16.7698 
618 1 1 16.6435 21.8554 17.3395 
619 1 1 16.0017 21.3153 17.9069 
620 1 1 6.78725 22.1944 17.1774 
621 1 1 7.34616 21.4385 17.4917 
622 1 1 8.04204 20.8161 17.7764 
623 1 1 15.1556 20.8847 18.2987 
624 1 1 14.281 20.3999 18.5405 
625 1 1 13.3601 20.0951 18.7662 
626 1 1 8.75051 20.242 18.0892 
627 1 1 12.4482 19.7056 18.7691 
628 1 1 11.4508 19.5867 18.6845 
629 1 1 10.5288 19.5485 18.6655 
630 1 1 9.5699 19.7486 18.4207 
631 1 1 17.8247 21.9756 16.0643 
632 1 1 18.3461 22.5825 15.2944 
633 1 1 6.71038 26.6857 14.677 
634 1 1 7.33706 27.2431 14.202 
635 1 1 6.49778 23.4398 15.9351 
636 1 1 6.85458 22.4932 16.2589 
637 1 1 6.64101 25.7071 14.6776 
638 1 1 6.70183 24.7464 14.7961 
639 1 1 6.72537 23.8196 15.0653 
640 1 1 8.17476 27.6342 13.7596 
641 1 1 9.04115 28.0131 13.4006 
642 1 1 9.93876 28.2902 13.2205 
643 1 1 17.6557 24.5751 15.2897 
644 1 1 18.5107 23.3935 14.6598 
645 1 1 18.1404 24.2022 14.6988 
646 1 1 17.2263 25.4607 15.0315 
647 1 1 16.6476 26.2942 14.824 
648 1 1 15.9238 27.0871 14.6502 
649 1 1 12.4285 28.875 13.7632 
650 1 1 13.4289 28.6813 13.9441 
651 1 1 14.3534 28.2666 14.1069 
652 1 1 15.2011 27.6993 14.3478 
653 1 1 10.9909 28.4324 13.1332 
654 1 1 11.9515 28.4395 13.006 
655 1 1 17.2433 21.4033 16.5735 
656 1 1 16.5211 20.8846 17.2273 
657 1 1 15.7554 20.3755 17.6805 
658 1 1 7.36574 21.6468 16.4685 
659 1 1 7.90418 20.9146 16.8211 
660 1 1 8.59188 20.2452 17.0711 
661 1 1 14.861 19.9829 17.9214 
662 1 1 13.8977 19.6184 18.0411 
663 1 1 12.911 19.3338 18.0115 
664 1 1 9.28581 19.7411 17.4193 
665 1 1 11.9745 19.1881 17.9377 
666 1 1 11.0644 19.1771 17.8631 
667 1 1 10.1315 19.3435 17.7048 
668 1 1 17.8262 20.9607 15.9827 
669 1 1 18.4286 21.4943 15.4143 
670 1 1 18.8199 22.6346 14.549 
671 1 1 18.9883 23.1822 14.037 
672 1 1 18.8119 21.8854 14.7084 
673 1 1 7.19515 26.1815 14.0304 
674 1 1 7.90813 26.6989 13.5655 
675 1 1 6.98454 22.9057 15.2995 
676 1 1 7.3884 21.9887 15.5234 
677 1 1 7.17036 25.2565 13.9898 
678 1 1 7.10539 24.2279 14.0722 
679 1 1 7.23219 23.2704 14.3235 
680 1 1 8.69667 27.1316 13.1695 
681 1 1 9.53258 27.4786 12.7999 
682 1 1 10.5097 27.7719 12.5475 
683 1 1 17.7478 25.1188 14.3989 
684 1 1 18.7115 23.9136 13.9159 
685 1 1 18.3137 24.7277 13.7748 
686 1 1 17.2126 25.9581 14.0905 
687 1 1 16.4729 26.6686 13.93 
688 1 1 15.718 27.3062 13.6109 
689 1 1 12.9708 28.4427 13.1274 
690 1 1 13.9718 28.1571 13.1461 
691 1 1 14.8317 27.776 13.3499 
692 1 1 11.5557 27.9877 12.4234 
693 1 1 12.6195 28.0109 12.4241 
694 1 1 17.1285 20.4725 16.4796 
695 1 1 16.3257 19.9656 16.9277 
696 1 1 15.5357 19.5342 17.225 
697 1 1 7.94962 21.2077 15.7886 
698 1 1 8.44924 20.5024 16.1451 
699 1 1 9.13975 19.8108 16.3514 
700 1 1 14.5242 19.1762 17.3826 
701 1 1 13.49 18.9355 17.3027 
702 1 1 12.5405 18.7926 17.2195 
703 1 1 9.88032 19.3114 16.7344 
704 1 1 11.6678 18.7919 17.0418 
705 1 1 10.769 18.9947 16.8701 
706 1 1 17.7274 20.0385 15.8212 
707 1 1 18.4344 20.498 15.2381 
708 1 1 18.9972 20.8887 14.5842 
709 1 1 19.332 23.446 13.2637 
710 1 1 19.37 22.4212 13.8368 
711 1 1 19.31 21.6573 14.1263 
712 1 1 7.82435 25.7748 13.3139 
713 1 1 8.53464 26.2284 12.8134 
714 1 1 7.50426 22.447 14.5123 
715 1 1 7.93799 21.5422 14.8191 
716 1 1 7.6465 24.7219 13.3493 
717 1 1 7.68918 23.7217 13.5214 
718 1 1 7.81538 22.8905 13.6237 
719 1 1 9.29943 26.6656 12.3869 
720 1 1 10.154 27.0203 12.0253 
721 1 1 11.1001 27.3806 11.8191 
722 1 1 17.7791 25.4941 13.4854 
723 1 1 18.9164 24.3015 13.0616 
724 1 1 18.3932 24.9688 12.8668 
725 1 1 17.0689 26.2612 13.2012 
726 1 1 16.323 26.8491 12.9568 
727 1 1 15.4894 27.3342 12.6701 
728 1 1 13.5983 27.9049 12.4072 
729 1 1 14.602 27.6706 12.4907 
730 1 1 12.1394 27.5808 11.7477 
731 1 1 13.1739 27.4933 11.7158 
732 1 1 16.9288 19.5762 16.3138 
733 1 1 16.031 19.0876 16.5331 
734 1 1 15.0646 18.7596 16.7419 
735 1 1 8.42017 20.8167 15.0639 
736 1 1 9.00113 20.0335 15.3919 
737 1 1 9.65971 19.3712 15.6554 
738 1 1 14.0962 18.4816 16.6189 
739 1 1 13.1195 18.2584 16.5063 
740 1 1 12.2317 18.3738 16.3202 
741 1 1 10.4547 18.9142 15.9471 
742 1 1 11.2627 18.5794 16.1563 
743 1 1 18.1591 19.5235 15.1106 
744 1 1 17.4359 19.0816 15.6339 
745 1 1 18.8208 19.8753 14.5994 
746 1 1 18.6771 18.9343 14.4128 
747 1 1 19.437 23.9689 12.5222 
748 1 1 19.309 20.2632 13.9983 
749 1 1 19.8867 23.3439 12.3578 
750 1 1 19.5552 20.9982 13.7459 
751 1 1 19.8633 22.61 12.9344 
752 1 1 19.7361 21.7452 13.418 
753 1 1 8.32098 25.2646 12.7373 
754 1 1 9.01917 25.7123 12.1414 
755 1 1 8.10543 21.994 13.8149 
756 1 1 8.49098 21.1909 14.0562 
757 1 1 8.26634 24.2924 12.7035 
758 1 1 8.30603 23.3843 12.7458 
759 1 1 8.42264 22.485 12.9706 
760 1 1 9.75605 26.1713 11.759 
761 1 1 10.6092 26.5167 11.3834 
762 1 1 11.5753 26.7924 11.1595 
763 1 1 17.6844 25.7827 12.5539 
764 1 1 19.0204 24.6162 12.2355 
765 1 1 18.3167 25.3446 11.9348 
766 1 1 16.9392 26.3748 12.2709 
767 1 1 16.0788 26.8798 12.0116 
768 1 1 15.1285 27.2928 11.7479 
769 1 1 14.134 27.4557 11.707 
770 1 1 12.6442 27.0164 11.0755 
771 1 1 13.7701 27.0584 10.9314 
772 1 1 16.5843 18.658 15.9372 
773 1 1 15.6397 18.2978 16.0848 
774 1 1 14.6971 18.1173 16.0486 
775 1 1 8.99207 20.3316 14.419 
776 1 1 9.49672 19.5462 14.66 
777 1 1 10.1657 18.9062 14.9489 
778 1 1 13.7761 17.8906 15.9097 
779 1 1 12.8321 17.8577 15.6551 
780 1 1 11.8981 18.011 15.4554 
781 1 1 10.9914 18.4096 15.1696 
782 1 1 14.4933 17.5284 15.3938 
783 1 1 17.934 18.6058 14.8251 
784 1 1 17.1284 18.2638 15.2439 
785 1 1 19.4416 19.3549 13.7502 
786 1 1 18.5494 18.1628 14.1674 
787 1 1 19.1658 18.5194 13.805 
788 1 1 19.7405 18.6128 13.2445 
789 1 1 19.5995 24.0627 11.5601 
790 1 1 20.2672 23.3148 11.4334 
791 1 1 19.8323 20.2139 13.3817 
792 1 1 20.3503 22.6487 12.0716 
793 1 1 20.0743 20.998 12.9546 
794 1 1 20.2023 21.7591 12.5656 
795 1 1 8.90434 24.8108 12.0085 
796 1 1 9.63486 25.1928 11.4669 
797 1 1 8.65447 21.5676 13.0856 
798 1 1 9.04538 20.5855 13.5067 
799 1 1 8.81237 23.842 12.0171 
800 1 1 8.88703 22.8809 12.0894 
801 1 1 8.97503 21.975 12.2579 
802 1 1 10.3499 25.6943 11.0296 
803 1 1 11.1876 25.9264 10.6697 
804 1 1 12.1219 26.3231 10.506 
805 1 1 17.5923 25.9278 11.6229 
806 1 1 18.9434 24.875 11.2784 
807 1 1 18.2197 25.4356 10.9553 
808 1 1 16.7982 26.3714 11.3387 
809 1 1 15.8263 26.7677 11.1097 
810 1 1 14.7934 26.9956 11.0009 
811 1 1 13.18 26.5858 10.3633 
812 1 1 14.23 26.5989 10.3191 
813 1 1 16.3069 17.9435 15.4866 
814 1 1 15.379 17.6851 15.5086 
815 1 1 9.53991 19.7319 13.6789 
816 1 1 10.0435 18.9917 13.9883 
817 1 1 10.7336 18.2609 14.2108 
818 1 1 13.4956 17.3618 14.9525 
819 1 1 12.5205 17.5262 14.7227 
820 1 1 11.5225 17.7719 14.4699 
821 1 1 15.0549 17.1909 14.9897 
822 1 1 14.3263 17.0884 14.7548 
823 1 1 16.8114 17.5499 14.8687 
824 1 1 17.6658 17.6853 14.4273 
825 1 1 18.4112 17.4667 13.8113 
826 1 1 20.1062 19.4198 12.9371 
827 1 1 19.2125 17.6875 13.4029 
828 1 1 19.9129 17.9291 12.8954 
829 1 1 20.3212 18.5623 12.5341 
830 1 1 19.4983 24.4421 10.609 
831 1 1 20.0418 23.878 10.7938 
832 1 1 20.5683 23.3642 10.5671 
833 1 1 20.7919 22.6584 11.2255 
834 1 1 20.424 20.1936 12.5578 
835 1 1 20.735 21.913 11.7788 
836 1 1 20.6561 21.0434 12.094 
837 1 1 9.45402 24.2215 11.401 
838 1 1 10.1556 24.6724 10.8087 
839 1 1 9.21148 20.9835 12.4448 
840 1 1 9.49784 20.0957 12.6844 
841 1 1 9.39941 23.204 11.3226 
842 1 1 9.30886 22.2761 11.4776 
843 1 1 9.47434 21.404 11.5108 
844 1 1 10.8836 25.0861 10.4105 
845 1 1 11.7338 25.4274 10.0853 
846 1 1 12.5822 25.8476 9.89463 
847 1 1 17.3065 25.9302 10.6338 
848 1 1 18.8091 24.9934 10.4029 
849 1 1 17.9535 25.405 10.0395 
850 1 1 16.3529 26.2686 10.4125 
851 1 1 15.2851 26.42 10.2513 
852 1 1 13.6054 26.1239 9.75331 
853 1 1 14.5132 26.1048 9.60397 
854 1 1 15.9548 17.2315 14.8042 
855 1 1 9.99638 19.2714 13.0557 
856 1 1 10.6221 18.438 13.223 
857 1 1 13.9219 16.8484 14.1164 
858 1 1 11.3361 17.7794 13.5119 
859 1 1 13.1067 17.0729 14.0231 
860 1 1 12.1524 17.382 13.843 
861 1 1 14.9692 16.7276 14.2383 
862 1 1 14.4642 16.5582 13.6179 
863 1 1 16.83 17.0066 14.2341 
864 1 1 17.7589 16.9686 13.7413 
865 1 1 18.4811 16.8718 13.2863 
866 1 1 19.1473 16.82 12.9354 
867 1 1 20.698 19.4033 12.124 
868 1 1 19.7229 17.231 12.6813 
869 1 1 20.3086 17.7061 12.208 
870 1 1 20.9409 18.4299 11.4994 
871 1 1 19.2493 24.6056 9.89201 
872 1 1 20.038 23.9653 9.86459 
873 1 1 20.8113 23.1733 9.85557 
874 1 1 21.1435 22.613 10.3594 
875 1 1 21.2388 21.9347 10.8259 
876 1 1 21.0125 20.2418 11.7064 
877 1 1 21.1646 21.1277 11.2892 
878 1 1 9.95291 23.7277 10.7226 
879 1 1 10.6966 24.0713 10.1257 
880 1 1 9.7175 20.4278 11.7111 
881 1 1 10.0523 19.4722 12.065 
882 1 1 9.87515 22.703 10.6548 
883 1 1 9.92186 21.8254 10.6972 
884 1 1 9.95395 20.9091 10.8494 
885 1 1 11.422 24.5589 9.75135 
886 1 1 12.2881 25.0612 9.38129 
887 1 1 13.1361 25.4372 9.20667 
888 1 1 17.0097 25.7384 9.71978 
889 1 1 17.6983 25.3276 9.22057 
890 1 1 18.5777 24.9396 9.4116 
891 1 1 16.0995 25.9981 9.66321 
892 1 1 15.3119 25.9743 9.47771 
893 1 1 14.0348 25.7014 9.01073 
894 1 1 14.814 25.7226 8.95526 
895 1 1 16.0093 16.6637 13.9768 
896 1 1 10.4655 18.7126 12.3131 
897 1 1 11.1082 17.8698 12.5575 
898 1 1 13.6748 16.5556 13.1823 
899 1 1 11.9129 17.3258 12.7938 
900 1 1 12.7331 16.9324 13.1048 
901 1 1 15.2593 16.3214 13.4023 
902 1 1 14.549 16.1768 12.8913 
903 1 1 16.8866 16.5178 13.481 
904 1 1 17.7646 16.3783 13.0267 
905 1 1 18.7011 16.1998 12.5712 
906 1 1 19.5119 16.5338 12.299 
907 1 1 21.3204 19.4395 11.225 
908 1 1 20.1691 16.9152 11.8585 
909 1 1 20.7186 17.4606 11.3634 
910 1 1 21.0981 17.9455 10.8086 
911 1 1 21.3978 18.6995 10.5934 
912 1 1 19.4091 24.4038 9.14575 
913 1 1 19.9771 23.9351 8.91443 
914 1 1 20.5526 23.3755 9.14401 
915 1 1 21.1413 22.6163 9.40033 
916 1 1 21.539 21.8673 9.95347 
917 1 1 21.6262 21.1168 10.3371 