ITEM: TIMESTEP
100000000
ITEM: NUMBER OF ATOMS
44148
ITEM: BOX BOUNDS pp pp pp
0 62
0 62
0 62
ITEM: ATOMS id mol type x y z vx vy vz 
1 1 1 38.8525 33.3473 32.471 0.0391145 -0.000613767 -0.0608948 
2 1 1 38.626 32.9129 31.7849 0.056892 0.0975489 -0.0184791 
3 1 1 38.3391 32.6697 32.7272 0.00679029 -0.00617266 0.0775122 
4 1 1 38.1551 32.1674 32.0225 -0.0246544 -0.0810579 0.0585356 
5 1 1 38.7761 33.1777 33.3654 -0.069308 -0.112713 -0.110432 
6 1 1 38.0975 31.7898 33.0423 -0.0261797 -0.040431 -0.159675 
7 1 1 37.8585 31.1831 32.3543 0.0641864 -0.101095 -0.216598 
8 1 1 39.168 33.6265 31.6562 0.183387 -0.0291528 0.0649708 
9 1 1 39.0367 33.1208 30.8294 0.0165722 0.158858 -0.00369026 
10 1 1 38.4362 32.3788 31.108 -0.00958133 -0.0713432 -0.0543197 
11 1 1 38.0264 31.5969 31.4006 -0.200538 -0.0821696 -0.176935 
12 1 1 37.863 30.7129 31.4076 -0.0563279 0.00839017 0.107419 
13 1 1 39.5559 34.0729 32.5026 -0.0764276 0.0923834 0.000303693 
14 1 1 39.1886 33.6831 33.0538 0.0736906 0.0748837 -0.17142 
15 1 1 39.3263 33.6898 33.826 0.0285622 0.0396297 -0.00510719 
16 1 1 38.4008 32.3739 33.6979 0.0788158 -0.0375467 -0.274901 
17 1 1 38.896 32.9484 34.3406 0.0380165 0.0534574 -0.0486287 
18 1 1 37.7477 30.3353 32.1007 -0.00981542 -0.0822525 0.196789 
19 1 1 37.7864 30.2969 32.9052 0.160434 0.0144209 -0.0179455 
20 1 1 37.8793 30.9702 33.3732 -0.189264 -0.0921375 -0.108155 
21 1 1 38.1792 31.5429 34.0141 0.111387 -0.105181 0.104057 
22 1 1 40.0704 34.4281 32.4568 0.0899118 -0.0731396 -0.0667476 
23 1 1 39.7856 34.1448 31.5314 0.16377 0.198813 0.0827964 
24 1 1 39.6645 33.7132 30.7537 0.0196778 0.0731971 -0.00353044 
25 1 1 39.5615 33.2356 30.0783 -0.0128278 -0.0656297 0.193873 
26 1 1 38.9353 32.5633 30.1298 0.127165 -0.123547 -0.113622 
27 1 1 38.439 31.759 30.3426 -0.149164 0.101104 0.0204602 
28 1 1 37.8336 29.8007 31.5028 -0.0484853 -0.0880139 -0.0328292 
29 1 1 38.1463 30.9958 30.543 0.0450176 0.0232532 0.0867251 
30 1 1 37.9538 30.087 30.6847 -0.0958926 0.0308071 0.0536304 
31 1 1 39.9476 34.3012 33.397 0.205926 -0.0342879 -0.0188914 
32 1 1 39.8622 33.8905 34.3684 0.0672554 -0.0933047 0.0300026 
33 1 1 39.4965 33.3316 34.7788 0.0286741 -0.154225 -0.00287959 
34 1 1 38.5695 32.1344 34.7552 -0.0160075 -0.0626699 -0.0319132 
35 1 1 39.1955 32.6228 35.2459 0.0236542 0.0360938 -0.0292273 
36 1 1 37.7559 29.616 32.325 0.0155704 -0.0930116 -0.00253802 
37 1 1 37.8165 29.4766 33.1461 0.0817534 0.0232205 0.0875972 
38 1 1 37.9534 29.0277 31.7867 -0.143388 0.123303 -0.0160115 
39 1 1 37.9332 30.0095 33.7738 -0.088718 -0.0368856 0.0239899 
40 1 1 38.037 30.5992 34.2117 -0.0796194 0.0262964 -0.00383027 
41 1 1 38.4018 31.2266 34.9737 -0.029719 -0.160313 -0.00979274 
42 1 1 40.6941 34.7449 32.8917 0.0627845 -0.154377 -0.164544 
43 1 1 40.9586 34.7342 32.0255 -0.174612 0.0172282 -0.0689322 
44 1 1 40.5603 34.4921 31.4043 0.10161 -0.0404866 -0.0378642 
45 1 1 40.2981 34.1733 30.782 -0.0938116 -0.0465091 -0.0389231 
46 1 1 40.3576 33.8695 30.0687 -0.0975141 -0.0446005 -0.00849471 
47 1 1 40.3168 33.4903 29.3408 0.101076 -0.0235012 -0.044366 
48 1 1 39.5476 32.6624 29.3353 0.042037 0.0522799 0.183459 
49 1 1 38.9064 31.8202 29.4679 -0.0506548 0.0923842 0.117965 
50 1 1 38.5667 31.0085 29.6334 -0.0126913 -0.0152945 0.0725792 
51 1 1 38.0314 29.2214 30.8777 -0.045647 -0.00136361 0.101695 
52 1 1 38.2859 30.2261 29.9149 0.246586 -0.0585074 0.0178095 
53 1 1 38.2027 29.527 30.2821 -0.0239533 -0.077038 -0.110639 
54 1 1 40.8434 34.7049 33.6443 -0.0252376 0.14957 -0.0882414 
55 1 1 41.6513 34.9575 33.0888 0.0896887 0.313079 -0.029192 
56 1 1 40.457 34.3494 34.2006 -0.144979 0.066632 0.0524085 
57 1 1 40.3677 33.8562 34.9357 -0.114874 -0.144394 -0.0123639 
58 1 1 41.4023 34.5444 34.4112 0.0150288 0.052902 0.0156746 
59 1 1 39.9741 33.1605 35.5104 -0.00542544 -0.0169909 0.0589824 
60 1 1 38.9862 31.8249 35.588 0.148811 0.15184 0.0474182 
61 1 1 39.77 32.4719 35.926 -0.109203 -0.0766407 0.11744 
62 1 1 38.0548 29.4179 33.8985 -0.0239937 0.14359 0.244553 
63 1 1 37.9027 28.7612 32.6275 0.0133874 -0.0675337 -0.0428239 
64 1 1 38.0912 28.6952 33.4924 -0.0630199 0.0673816 0.0235977 
65 1 1 38.2304 28.5425 31.1296 0.183341 0.0190734 -0.135969 
66 1 1 38.1823 28.2236 31.9994 -0.0201782 -0.128703 -0.0886179 
67 1 1 38.2127 29.7124 34.461 -0.0588035 -0.0208113 0.0420089 
68 1 1 38.4401 30.3237 35.1664 0.107034 0.155537 0.118897 
69 1 1 39.0151 30.9574 35.7403 0.00276593 0.0676355 0.122566 
70 1 1 41.4858 34.8801 32.2935 0.109405 -0.00250431 0.150655 
71 1 1 41.4979 34.7861 31.4308 0.0547915 -0.00117593 -0.0653142 
72 1 1 41.1719 34.4488 30.4348 -0.0684987 -0.0281992 0.140254 
73 1 1 41.1972 34.0058 29.5457 -0.117163 0.143416 -0.109822 
74 1 1 40.9683 33.4789 28.9094 0.0395168 0.151254 0.0575347 
75 1 1 40.213 32.8227 28.7528 -0.00148766 -0.079755 0.173577 
76 1 1 39.6584 31.919 28.7121 0.0267297 0.0713647 0.00307767 
77 1 1 39.1323 31.0681 28.882 0.127229 0.153326 0.0512384 
78 1 1 38.8797 30.3207 29.1242 -0.140258 0.043668 0.124027 
79 1 1 38.4568 28.8183 30.2059 -0.037863 -0.032153 0.0308417 
80 1 1 38.7188 29.3984 29.4625 0.0430949 0.119967 -0.109283 
81 1 1 38.6646 28.0234 30.5524 -0.0168658 -0.0833864 -0.0667509 
82 1 1 42.5405 35.0949 32.6626 -0.0717476 0.0435058 0.0436674 
83 1 1 41.9337 34.7467 33.8537 -0.0769602 0.018056 0.188338 
84 1 1 42.4674 34.9414 33.3129 -0.106538 -0.130323 0.024916 
85 1 1 41.2167 34.2478 34.8946 0.0403308 -0.100471 -0.000746831 
86 1 1 40.9543 33.6668 35.6281 -0.0304279 -0.20786 0.243781 
87 1 1 42.0608 34.4425 34.8016 -0.0677705 -0.0898546 0.0925232 
88 1 1 40.6776 32.892 36.1853 0.165613 0.146812 -0.0485299 
89 1 1 39.6908 31.5557 36.2609 0.0605376 -0.0181731 -0.0484099 
90 1 1 40.5545 32.1374 36.4908 0.0961726 -0.0107246 -0.0887485 
91 1 1 38.4494 28.765 34.4855 -0.192288 0.0219748 -0.161545 
92 1 1 38.2393 28.0435 32.8819 -0.00917396 -0.146538 0.110504 
93 1 1 38.5398 27.9866 33.8385 0.086115 -0.038409 -0.00560497 
94 1 1 38.6434 27.6791 31.4002 0.0474942 -0.0825715 0.0832775 
95 1 1 38.6778 27.4473 32.3326 -0.043473 -0.0149063 -0.0275377 
96 1 1 38.6631 29.3145 35.2269 0.160824 0.114929 -0.0489363 
97 1 1 39.0838 30.037 35.8327 0.252717 -0.18362 0.00838757 
98 1 1 39.7412 30.6788 36.4592 0.0568765 -0.0587616 0.0346289 
99 1 1 42.2634 34.9672 31.8459 0.0820266 0.0128787 -0.0643843 
100 1 1 42.1929 34.765 30.8436 0.0546191 0.195817 -0.010963 
101 1 1 42.0577 34.4209 29.8644 0.0249015 0.00220168 -0.126329 
102 1 1 42.0497 33.7996 28.9524 -0.183557 0.168847 -0.0916458 
103 1 1 40.8661 32.8464 28.3929 -0.175419 0.032519 0.031378 
104 1 1 41.5063 33.0779 28.3713 0.0571193 -0.156209 0.00970823 
105 1 1 40.4344 31.9688 28.0568 -0.0619774 0.0773474 0.0693139 
106 1 1 39.7839 31.052 28.2409 -0.0479113 -0.0207024 -0.0966592 
107 1 1 39.4855 30.2404 28.5238 0.071005 -0.0325327 -0.101049 
108 1 1 39.2596 29.6175 28.7793 0.0865315 -0.0466994 -0.0818518 
109 1 1 39.0902 27.1535 30.8526 -0.0606146 0.132866 -0.134429 
110 1 1 38.9885 28.3661 29.6668 -0.0513198 -0.0310687 -0.030654 
111 1 1 39.3536 28.8162 28.9821 -0.120113 0.0715185 -0.0351054 
112 1 1 39.2911 27.504 29.9492 -0.0630972 -0.0619799 0.0565121 
113 1 1 43.2169 35.0467 33.1996 -0.0718024 0.122721 -0.117512 
114 1 1 43.1711 35.0668 32.1868 -0.0691459 0.150515 -0.0315749 
115 1 1 42.9704 34.7614 34.1262 0.0298084 -0.0153659 -0.139365 
116 1 1 43.871 34.8321 33.7594 -0.0225992 0.22915 -0.0564306 
117 1 1 41.9254 33.9801 35.4738 0.042175 -0.125766 -0.177962 
118 1 1 41.6765 33.3188 36.2265 0.084812 -0.0677991 0.125321 
119 1 1 42.8805 34.2488 35.1954 -0.0364221 -0.113286 0.0191662 
120 1 1 41.4657 32.5828 36.6804 0.162431 0.0322131 -0.0391706 
121 1 1 40.5231 31.2099 36.7797 -0.0127045 -0.205276 0.182354 
122 1 1 41.348 31.8716 36.9639 -0.102816 -0.136182 -0.0812145 
123 1 1 39.0783 28.4293 35.1818 -0.0611741 0.0723302 0.117512 
124 1 1 38.9557 27.9313 34.5468 0.0175313 -0.08342 0.0391828 
125 1 1 38.8003 27.4122 33.2718 -0.00254042 0.00931874 0.028522 
126 1 1 39.105 27.4461 34.1541 0.185183 -0.0252188 -0.06326 
127 1 1 39.0638 26.8685 31.7594 0.00419748 0.00984722 0.0130517 
128 1 1 39.1752 26.71 32.6917 0.180372 -0.0473369 0.0454661 
129 1 1 39.4485 26.3757 31.1725 -0.0842364 0.0185188 -0.155601 
130 1 1 40.5407 30.3344 36.9487 0.0929862 0.0362914 -0.130736 
131 1 1 39.3161 28.9739 35.7565 -0.0305673 0.107168 0.0135022 
132 1 1 40.0308 29.6132 36.5746 0.0768218 -0.100747 0.0226491 
133 1 1 43.0742 34.8985 31.2871 0.119986 0.0303384 0.0129029 
134 1 1 42.9187 34.6294 30.3461 0.0918858 0.131381 -0.0706965 
135 1 1 42.3081 33.2804 28.3753 0.138546 -0.00710878 0.149464 
136 1 1 42.7314 34.2564 29.4674 0.105454 -0.117532 0.131886 
137 1 1 42.894 33.7311 28.7965 0.0594338 -0.0976912 -0.0600596 
138 1 1 41.3065 32.3663 27.8882 0.0109204 0.0225333 -0.0967983 
139 1 1 42.215 32.6685 27.9808 -0.133538 -0.08153 -0.174005 
140 1 1 41.253 31.5127 27.5554 -0.0985615 0.0107539 -0.0398145 
141 1 1 40.5063 30.9562 27.7272 0.0160141 0.00239321 0.0389447 
142 1 1 40.0324 30.3573 28.03 -0.0376774 -0.0975593 -0.196644 
143 1 1 39.9643 29.3767 28.3638 -0.0171031 -0.191663 0.0513849 
144 1 1 39.6067 26.643 30.2799 -0.0585244 0.093305 -0.0638719 
145 1 1 39.6481 27.9618 29.1081 0.0331747 0.148553 -0.0267319 
146 1 1 39.8952 28.4716 28.6787 0.0188778 -0.122315 -0.0681743 
147 1 1 39.8691 27.0227 29.4752 0.00396512 0.303327 -0.174512 
148 1 1 43.9944 34.9905 32.7488 0.0650003 -0.0383319 -0.112464 
149 1 1 43.9528 34.9382 31.7464 -0.189577 0.100197 -0.0765249 
150 1 1 43.7488 34.3566 34.7761 0.0422643 0.15386 -0.00469682 
151 1 1 44.645 34.7492 33.2936 -0.115157 -0.219499 -0.0438024 
152 1 1 44.6884 34.4301 34.2737 -0.0381761 -0.0811555 -0.043634 
153 1 1 42.6394 33.71 35.9496 0.115451 -0.0569515 0.149192 
154 1 1 42.5028 32.9551 36.5958 0.0657768 0.0605238 -0.129305 
155 1 1 43.5496 33.9125 35.6432 0.120748 -0.0240069 -0.158544 
156 1 1 42.2557 31.9879 37.0882 0.112412 -0.157802 -0.160153 
157 1 1 41.3341 30.924 37.1799 0.139951 -0.00858045 -0.0539384 
158 1 1 41.9569 31.4555 37.2556 -0.0885238 0.0795826 -0.0635406 
159 1 1 39.5726 28.2127 35.645 -0.0558926 -0.0953139 0.13625 
160 1 1 39.5495 27.5028 35.0659 0.0353071 -0.0954086 0.0540175 
161 1 1 39.7023 26.8887 34.3719 0.113965 -0.0314416 -0.0218659 
162 1 1 39.4721 26.6488 33.5879 -0.13298 0.146617 -0.17527 
163 1 1 39.4914 26.1402 31.981 -0.101836 0.0527958 -0.0609426 
164 1 1 39.57 26.057 32.6903 0.0599503 -0.0722178 0.0318221 
165 1 1 39.9257 25.7813 30.6125 0.162924 0.231285 -0.0616514 
166 1 1 39.7771 25.7999 31.3989 0.18688 -0.0164888 0.0309243 
167 1 1 40.897 29.6313 36.9989 -0.0980123 0.0969506 -0.102479 
168 1 1 41.3164 30.1822 37.2542 0.0656512 0.013378 -0.0646279 
169 1 1 40.054 28.5098 36.2255 -0.0541714 -0.0812 -0.0716625 
170 1 1 40.7679 28.8757 36.7491 0.123168 0.0138583 -0.110943 
171 1 1 43.8751 34.5895 30.7116 -0.0918197 -0.048486 -0.0575893 
172 1 1 43.7103 34.2611 29.7611 -0.0900792 0.0093694 0.049178 
173 1 1 42.8577 33.0004 28.1814 0.207708 0.120298 0.0903481 
174 1 1 43.6991 33.8171 29.0948 -0.0451673 0.0706999 0.00810035 
175 1 1 43.4348 33.2498 28.5116 -0.119154 0.0867814 -0.058694 
176 1 1 42.981 32.2988 27.8134 0.00446884 -0.0171773 -0.190588 
177 1 1 42.1552 31.944 27.6236 0.00368432 0.0888087 -0.115814 
178 1 1 42.0874 30.9995 27.464 0.113784 -0.0134252 -0.108697 
179 1 1 41.2572 30.5591 27.5029 -0.0256392 -0.0477043 0.0845474 
180 1 1 40.5431 29.9641 27.8556 0.0792905 0.0622943 0.0852986 
181 1 1 40.7161 29.0947 27.9615 -0.0432782 0.0221277 0.0522013 
182 1 1 40.5052 28.5396 28.2322 0.0698428 -0.104407 0.00966876 
183 1 1 40.2019 26.0915 29.6976 0.040066 0.00355708 0.00348528 
184 1 1 40.3676 25.3008 30.2512 0.142654 0.139455 -0.163646 
185 1 1 40.3299 27.5324 28.6506 0.046666 -0.236005 -0.183277 
186 1 1 40.3774 26.6541 29.0404 0.0370821 -0.268431 0.172146 
187 1 1 44.788 34.8171 32.1591 -0.0327284 0.043016 -0.000220172 
188 1 1 44.7801 34.5927 31.252 -0.0345265 0.102593 -0.18747 
189 1 1 44.3582 33.9792 35.1875 0.00050625 -0.0608745 -0.106201 
190 1 1 45.108 33.8674 34.8926 0.0788714 0.0488277 -0.0470258 
191 1 1 45.2187 34.584 32.809 -0.0737887 0.0366993 0.0259191 
192 1 1 45.366 34.3882 33.5357 0.147556 0.058942 -0.125067 
193 1 1 45.4816 34.0551 34.1882 0.031852 -0.109858 0.00859814 
194 1 1 43.454 33.2116 36.3347 0.132364 0.0344993 -0.185676 
195 1 1 43.2117 32.4454 36.9545 0.0205356 0.0329226 0.0639666 
196 1 1 44.2668 33.3675 36.022 -0.164701 0.0495677 0.195248 
197 1 1 43.0197 31.4135 37.4176 -0.108713 -0.027223 0.0590399 
198 1 1 42.2007 30.7002 37.4553 -0.134518 0.20513 0.0743976 
199 1 1 40.1551 27.8039 35.8809 -0.0162199 0.011981 0.118243 
200 1 1 40.3493 27.2254 35.5415 -0.0300329 -0.116693 0.143497 
201 1 1 40.1478 26.778 34.9079 0.0326059 0.0736695 -0.151807 
202 1 1 40.1171 26.2194 34.2241 -0.0539467 0.042627 0.080959 
203 1 1 40.0659 25.6968 33.3774 -0.00645553 0.178488 -0.0464079 
204 1 1 40.066 25.2999 32.2946 0.0511313 -0.0875173 0.244645 
205 1 1 40.2951 24.9661 31.2199 0.0536091 -0.201911 0.209306 
206 1 1 41.5222 29.2919 37.1935 -0.0772573 -0.0669749 0.159649 
207 1 1 42.3394 29.8279 37.4346 -0.238841 0.0218223 -0.0992339 
208 1 1 40.8981 28.1122 36.463 0.0978892 0.00759592 -0.0438313 
209 1 1 41.6279 28.5395 36.9624 -0.230704 0.169231 0.0178299 
210 1 1 44.6191 34.279 30.2845 -0.0402805 -0.021691 0.121541 
211 1 1 44.5843 33.7875 29.5302 0.095888 0.0450255 0.224756 
212 1 1 43.6754 32.7218 28.1662 -0.208941 -0.130811 -0.0131452 
213 1 1 44.4136 33.1638 28.7954 0.0474131 0.0766815 -0.0636766 
214 1 1 43.8615 31.9991 27.8437 -0.181449 -0.110317 -0.0226969 
215 1 1 42.9872 31.4798 27.5231 0.143085 0.154184 0.142532 
216 1 1 40.7295 24.7273 30.3774 -0.030478 0.123252 0.186556 
217 1 1 40.8065 25.2957 29.5347 0.0611472 0.0279501 -0.070767 
218 1 1 42.9552 30.5226 27.3235 -0.0676796 -0.097734 -0.125453 
219 1 1 42.197 30.099 27.3419 -0.0605538 -0.299644 0.0987268 
220 1 1 41.3855 29.4791 27.5502 0.186364 0.0330439 -0.080663 
221 1 1 41.3135 28.4979 27.8024 -0.113516 -0.143471 0.112155 
222 1 1 41.0909 27.7692 28.0809 -0.0588889 -0.152814 -0.0371408 
223 1 1 40.7964 26.0225 29.0094 0.0566148 0.0411079 -0.099521 
224 1 1 40.9612 26.7444 28.3967 0.0923493 0.00481893 0.123026 
225 1 1 45.4829 34.0557 30.8287 0.0939957 -0.105779 -0.105409 
226 1 1 45.6729 34.3463 31.9915 0.096419 0.0560401 -0.108761 
227 1 1 45.0398 33.2968 35.6297 -0.0465628 -0.0531815 -0.0773345 
228 1 1 45.5799 33.3201 35.1699 -0.0146386 0.00352226 -0.105911 
229 1 1 45.8161 33.5846 34.5377 0.222982 -0.0320243 0.0599433 
230 1 1 45.9605 34.1188 32.9787 -0.12487 -0.100547 0.0379016 
231 1 1 45.9822 33.8398 33.7943 -0.118674 -0.0900794 0.00217576 
232 1 1 44.1339 32.6416 36.7358 -0.0635219 -0.0126976 -0.14976 
233 1 1 44.0274 31.8626 37.1371 -0.00648813 0.0472411 -0.13843 
234 1 1 44.9006 32.6756 36.4011 0.134292 -0.0795684 0.0487815 
235 1 1 44.0177 31.0215 37.3535 -0.0248061 -0.0552497 0.0818364 
236 1 1 43.1374 30.4205 37.5049 -0.0400924 0.134911 0.0754111 
237 1 1 40.8424 27.417 36.0456 -0.0507512 -0.178342 0.0482493 
238 1 1 40.9678 26.5938 35.4589 -0.0533071 -0.0718317 -0.0775582 
239 1 1 40.6993 25.9595 34.6811 0.0403629 -0.0943516 -0.0214297 
240 1 1 40.5753 25.3404 33.8987 0.0231836 -0.105519 0.0568467 
241 1 1 40.5455 24.9097 33.0498 -0.036726 0.101351 0.152202 
242 1 1 40.7212 24.3909 32.0802 -0.0274659 0.220008 -0.143282 
243 1 1 40.9106 24.1187 31.1247 -0.082404 -0.0335719 -0.0807471 
244 1 1 42.4383 29.015 37.2951 0.0729834 0.0290954 0.24752 
245 1 1 43.259 29.6215 37.4241 0.0447911 0.00880366 -0.0938653 
246 1 1 41.697 27.6691 36.5687 0.027275 -0.0176254 -0.0925409 
247 1 1 42.4344 28.1436 37.0305 -0.000842654 -0.0229299 0.0456355 
248 1 1 45.2579 33.6638 30.003 0.0745213 0.0704796 -0.0253835 
249 1 1 45.1375 33.2773 29.4666 -0.221933 0.067554 0.111127 
250 1 1 44.5713 32.3429 28.3583 -0.0954199 -0.063491 -0.124333 
251 1 1 45.2194 32.6854 29.052 0.145947 0.0388307 0.0899626 
252 1 1 44.6303 31.3974 27.9417 0.146646 0.112868 0.00584626 
253 1 1 43.7707 31.1441 27.5321 -0.0827684 0.00150493 -0.101701 
254 1 1 41.2983 23.9091 30.2508 0.00208344 -0.0294694 -0.0441421 
255 1 1 41.2719 24.572 29.5178 -0.0311108 0.155484 -0.0198688 
256 1 1 41.3946 25.3158 28.7753 -0.132159 0.0685815 -0.14701 
257 1 1 43.8555 30.3128 27.2863 -0.00705645 0.00867436 0.0850383 
258 1 1 43.1668 29.7198 27.2203 0.0506409 -0.0364024 -0.0326836 
259 1 1 42.4536 29.3736 27.2862 0.128833 -0.0189346 -0.0540876 
260 1 1 42.208 28.5735 27.4498 0.0500954 0.0683901 -0.0304572 
261 1 1 42.0364 27.769 27.5966 0.139527 0.135104 -0.0113024 
262 1 1 41.674 26.964 27.9055 -0.0335225 -0.00150163 -0.0952742 
263 1 1 41.488 26.0876 28.2378 0.00836811 -0.164946 -0.13738 
264 1 1 45.8631 33.5086 30.4986 0.157793 0.127329 -0.0253456 
265 1 1 46.1957 33.6549 31.2755 0.0776729 -0.0264889 0.147312 
266 1 1 46.4342 33.7271 32.2382 0.00733455 0.0346133 -0.0900774 
267 1 1 45.7533 32.5816 35.8608 -0.0373416 -0.15403 -0.0452595 
268 1 1 46.1843 32.9075 34.9877 0.0452516 -0.02235 0.130053 
269 1 1 46.4948 33.2114 34.2137 -0.0179597 0.039694 0.0951405 
270 1 1 46.5434 33.571 33.199 0.0148306 0.000518251 0.0064463 
271 1 1 44.8322 31.9897 36.7901 0.0325188 0.054471 0.139364 
272 1 1 44.6547 31.3948 37.1144 0.00979497 0.0323222 -0.0507298 
273 1 1 45.4847 32.0082 36.4409 0.0344258 0.163229 0.246379 
274 1 1 44.8602 30.729 37.1349 -0.00430812 -0.0399674 0.0830986 
275 1 1 44.0536 30.1219 37.371 0.125239 -0.0597716 0.0127692 
276 1 1 41.6675 26.8309 36.1469 0.0251737 -0.023452 0.0461111 
277 1 1 41.814 26.1496 35.8155 -0.0780375 0.00641914 -0.0177646 
278 1 1 41.4995 25.6292 35.2108 -0.105288 0.14953 0.0452185 
279 1 1 41.2529 25.0847 34.5226 0.0972348 0.0164911 0.164642 
280 1 1 41.2025 24.4756 33.7309 -0.226601 0.150677 0.0042678 
281 1 1 41.0791 24.0743 32.8741 -0.190651 0.0320727 0.0559985 
282 1 1 41.2927 23.6089 31.8866 -0.0118088 0.0455978 -0.144481 
283 1 1 41.4957 23.3296 30.9578 -0.150036 0.0809471 0.0218013 
284 1 1 43.1939 28.6728 37.2687 0.198442 0.137875 0.0214184 
285 1 1 44.0286 29.1204 37.2982 0.18315 0.183927 -0.0718071 
286 1 1 42.4362 27.2147 36.6579 -0.014061 0.152278 0.194551 
287 1 1 43.1613 27.7969 37.0402 -0.0427696 0.0737918 0.179928 
288 1 1 45.8079 32.9337 29.7804 0.00512032 0.0821727 -0.0427934 
289 1 1 45.3253 31.9429 28.5669 -0.0847174 0.142258 0.143827 
290 1 1 45.7228 32.2224 29.1374 0.0381738 0.204926 0.02674 
291 1 1 41.9231 23.0406 30.0785 -0.21226 -0.0989315 0.0182573 
292 1 1 45.4837 30.9824 28.0313 -0.0790333 0.0521623 -0.0658587 
293 1 1 44.7406 30.6641 27.583 0.0271256 -0.048125 -0.0553004 
294 1 1 41.8128 23.7032 29.383 -0.090615 0.152745 0.0613199 
295 1 1 41.8786 24.4793 28.7178 -0.0702295 0.0758235 0.0231248 
296 1 1 42.0294 25.2435 28.1717 0.0529062 0.12181 -0.0764782 
297 1 1 44.6889 29.7839 27.2502 0.0033846 0.195821 -0.136576 
298 1 1 43.9406 29.6047 27.1708 -0.0158637 -0.0769206 0.109705 
299 1 1 43.2865 28.7952 27.1627 -0.0991753 -0.0158536 0.0362938 
300 1 1 43.0319 27.8897 27.2453 0.10703 0.226953 -0.131927 
301 1 1 42.6255 27.0341 27.4116 0.0789118 0.0550951 0.0648601 
302 1 1 42.2185 26.1245 27.7326 -0.0165214 -0.0505916 -0.148108 
303 1 1 46.9799 33.104 32.6131 0.0979491 -0.0148808 -0.0521332 
304 1 1 46.4165 33.0443 30.5895 0.04788 0.0063159 0.0996936 
305 1 1 46.8208 33.1543 31.5582 0.132107 -0.173756 0.148001 
306 1 1 46.1025 31.6746 36.1103 -0.185037 0.0417425 0.0830969 
307 1 1 46.5248 32.2176 35.3382 -0.0959105 0.098966 0.0892784 
308 1 1 46.8778 32.5489 34.5312 0.130281 0.0801533 -0.00136418 
309 1 1 47.0307 32.9193 33.611 0.0197147 -0.0549185 -0.0446449 
310 1 1 45.5246 31.3052 36.7087 -0.0867765 0.108954 -0.0703539 
311 1 1 45.4694 30.3001 36.8438 0.128318 0.0424246 -0.0328036 
312 1 1 44.9203 29.6544 37.0739 0.076753 0.0702527 0.0446914 
313 1 1 42.6412 26.3984 36.3308 0.0187156 0.0167065 -0.0480126 
314 1 1 42.3195 25.5762 35.7825 0.102047 0.0748237 0.127396 
315 1 1 42.0575 24.9173 35.0887 -0.0972326 -0.0463775 -0.243149 
316 1 1 41.8236 24.255 34.4439 0.0645128 0.0737529 -0.206896 
317 1 1 41.6864 23.603 33.6771 0.093581 -0.0470216 0.120571 
318 1 1 41.6343 23.1865 32.7598 -0.0024025 -0.117953 -0.0390354 
319 1 1 41.8063 22.7993 31.7622 0.209389 0.0714292 -0.0801713 
320 1 1 42.0863 22.4783 30.8474 -0.204102 -0.168611 0.0545833 
321 1 1 43.9667 28.2423 37.1857 0.0411897 0.0899653 0.049268 
322 1 1 44.6251 28.6714 37.1291 0.0786843 -0.014238 -0.0586729 
323 1 1 43.3892 26.943 36.7925 0.0454412 -0.0201362 -0.149959 
324 1 1 43.8818 27.5287 36.9969 0.0979432 0.116376 0.0625982 
325 1 1 46.6282 32.4182 30.1122 -0.0365057 -0.00723535 -0.000546883 
326 1 1 46.3623 32.1375 29.5508 -0.169155 0.026643 0.0723403 
327 1 1 46.1299 31.4654 28.7856 0.0844507 -0.186918 -3.95144e-05 
328 1 1 46.16 30.5819 28.181 -0.0400295 -0.0263067 -0.0556836 
329 1 1 42.4703 22.2501 30.031 0.0393653 -0.133428 -0.0862763 
330 1 1 42.426 22.8466 29.2525 -0.0617921 -0.111817 -0.112022 
331 1 1 45.5522 30.1233 27.6121 -0.141308 0.029477 0.0301218 
332 1 1 42.4147 23.6331 28.5889 -0.0316893 -0.039196 -0.0120206 
333 1 1 42.5447 24.3688 28.0114 -0.0786949 -0.109347 -0.0238068 
334 1 1 42.8277 25.3108 27.6073 -0.154224 -0.0138036 0.0211348 
335 1 1 45.3432 29.3267 27.2361 -0.0968222 -0.0625169 -0.0613553 
336 1 1 44.5553 28.781 26.9825 -0.0953072 0.0561119 -0.123013 
337 1 1 43.9664 27.9147 27.0145 0.0720666 0.0734533 -0.0416088 
338 1 1 43.5419 26.9856 27.1092 -0.0947027 0.0343303 -0.0334321 
339 1 1 43.1828 26.2168 27.2984 0.12169 -0.110742 0.0972251 
340 1 1 46.2872 30.9819 36.1687 -0.0715553 -0.0131536 -0.0625309 
341 1 1 47.3904 32.2951 33.0323 0.01796 0.0973593 -0.0212455 
342 1 1 47.3754 32.4554 32.0198 0.0136713 -0.0624961 -0.11076 
343 1 1 47.1422 32.4362 30.9356 0.00385955 0.0888029 0.00914468 
344 1 1 46.7158 31.3031 35.5965 0.201142 -0.00916487 -0.0893614 
345 1 1 47.1081 31.6264 34.8398 0.0539971 0.0995707 0.0997339 
346 1 1 47.3311 32.0993 33.952 0.132137 0.129723 -0.0500759 
347 1 1 47.7825 31.5858 33.3068 -0.0441412 0.0026612 0.0430645 
348 1 1 46.0071 30.4109 36.5164 0.162594 0.00729432 0.0203697 
349 1 1 45.8564 29.5632 36.6902 -0.0417295 -0.0202734 -0.0694779 
350 1 1 45.4179 28.6174 36.8457 0.160401 0.188224 -0.0879535 
351 1 1 43.5205 26.1919 36.5262 0.0460643 0.157194 -0.0178017 
352 1 1 43.1841 25.5449 36.1794 -0.0500313 0.0107809 -0.0455027 
353 1 1 42.9157 24.7835 35.63 -0.0942598 0.010924 0.0634436 
354 1 1 42.6068 24.1088 35.0377 -0.0850762 -0.0741309 -0.0383597 
355 1 1 42.3498 23.414 34.4097 -0.0489271 0.116814 0.0280241 
356 1 1 42.2333 22.8969 33.6052 0.00303578 -0.211999 -0.0929561 
357 1 1 42.1809 22.4446 32.6432 -0.0947797 -0.104105 -0.139499 
358 1 1 42.3662 21.9788 31.7188 0.17615 -0.124581 -0.0721173 
359 1 1 42.6578 21.7051 30.7786 -0.153183 -0.0238345 -0.00700119 
360 1 1 44.8637 27.6837 36.9677 -0.172294 0.108321 -0.079271 
361 1 1 44.4139 26.6405 36.7265 -0.162223 0.0681227 0.00961495 
362 1 1 47.0614 31.8537 30.0407 0.193666 -0.182048 -0.0464482 
363 1 1 46.9163 31.2726 29.3916 0.0453008 0.0688949 0.0471797 
364 1 1 46.7542 30.4973 28.6621 -0.132641 -0.115064 0.0524381 
365 1 1 46.4063 29.9557 27.9104 0.107955 0.00893854 0.0047651 
366 1 1 43.0263 21.4818 29.8632 0.062976 -0.0851692 -0.0571419 
367 1 1 42.9434 22.0573 29.1541 -0.163076 0.00746616 0.118192 
368 1 1 43.0665 22.7993 28.4487 -0.107995 -0.113757 -0.0360468 
369 1 1 46.1329 29.2571 27.4682 0.0693954 0.0978335 0.0890395 
370 1 1 43.1373 23.6173 27.8679 0.11241 0.0497541 0.177823 
371 1 1 43.3661 24.5008 27.4337 0.16531 0.0488305 0.10241 
372 1 1 43.6525 25.3397 27.1434 0.0189656 0.0796716 0.117844 
373 1 1 45.5782 28.5621 27.1126 0.167483 -0.0233256 -0.0470561 
374 1 1 45.0082 27.8569 26.9069 0.0326084 -0.168859 -0.152534 
375 1 1 44.5217 27.0955 26.9431 0.0542314 0.0450408 -0.0830351 
376 1 1 44.0843 26.191 26.9257 -0.208924 0.0676833 0.0416104 
377 1 1 46.8728 30.4027 35.7723 -0.0575381 0.0796543 0.101239 
378 1 1 47.8035 31.7714 32.4217 -0.048216 -0.0075721 0.16834 
379 1 1 47.743 31.8606 31.6759 0.037684 0.0998869 -0.060208 
380 1 1 47.6789 31.5384 30.7588 0.154578 0.197938 -0.0444138 
381 1 1 47.3685 30.8228 35.0491 -0.0201696 -0.0896814 0.026539 
382 1 1 47.7047 31.2558 34.2205 -0.00641078 -0.00712705 -0.0376353 
383 1 1 48.1753 30.8169 33.513 -0.0709464 -0.0249682 0.0207024 
384 1 1 48.0706 31.1945 32.8266 -0.04337 0.0789812 -0.0799495 
385 1 1 46.5602 29.6219 36.1844 -0.00716817 0.0186849 0.175347 
386 1 1 46.2583 28.684 36.4705 -0.0848254 -0.0703555 0.145552 
387 1 1 45.9166 27.7584 36.7244 0.0122487 0.161341 0.0953512 
388 1 1 44.0829 25.6717 36.4904 -0.224051 0.0614955 -0.0868934 
389 1 1 43.7895 24.859 36.0298 -0.0534152 -0.051485 -0.0197074 
390 1 1 43.4005 24.0291 35.4862 0.0168656 0.0523844 0.080632 
391 1 1 43.1667 23.2703 34.9421 0.0851606 -0.143965 0.0228341 
392 1 1 42.9905 22.556 34.2263 -0.0823105 -0.0802588 -0.111008 
393 1 1 42.7353 22.1004 33.3519 0.00124358 -0.0851185 -0.0400765 
394 1 1 42.7926 21.6087 32.5291 0.0404042 0.116862 0.0150379 
395 1 1 42.9434 21.2292 31.4741 -0.126343 0.151202 -0.0369044 
396 1 1 43.2117 20.8618 30.6064 -0.0426546 0.134805 0.158264 
397 1 1 45.4799 26.8004 36.7763 -0.0396359 0.0141413 0.0551956 
398 1 1 45.0363 25.8135 36.6441 -0.188324 0.0476273 0.0715435 
399 1 1 47.6368 30.9743 30.0867 0.0633602 0.197477 0.120336 
400 1 1 47.4615 30.4278 29.2699 -0.0367229 0.0468758 0.00475274 
401 1 1 47.2133 29.8188 28.4118 -0.149822 -0.0149331 -0.0856804 
402 1 1 43.5019 20.6621 29.6456 -0.240482 0.0278604 0.0663912 
403 1 1 46.9603 29.1203 27.8637 -0.003367 0.0664811 0.199992 
404 1 1 43.4626 21.1987 28.9301 0.110052 0.140844 0.05315 
405 1 1 43.5412 22.0404 28.2886 -0.0419985 0.159282 0.0249775 
406 1 1 43.6784 22.7907 27.7068 0.0174433 -0.0634756 0.0187813 
407 1 1 46.6147 28.4312 27.3738 0.0438887 0.0260966 0.232377 
408 1 1 43.9042 23.6169 27.2629 0.00244807 0.0802042 -0.0282628 
409 1 1 44.2192 24.4681 26.8682 -0.124385 -0.023027 0.0610446 
410 1 1 44.5693 25.3174 26.7105 -0.0126415 0.0191116 0.128254 
411 1 1 46.0712 27.7891 26.9652 -0.211765 -0.0854606 0.192978 
412 1 1 45.6076 27.0463 26.7906 0.104519 -0.100192 -0.112278 
413 1 1 45.1109 26.1901 26.6768 -0.105923 0.0775626 -0.106067 
414 1 1 47.5899 30.1015 35.1868 -0.029909 0.16626 -0.177081 
415 1 1 47.3561 29.4174 35.6072 -0.014507 0.0552151 -0.172348 
416 1 1 48.196 31.1032 31.7587 -0.014807 -0.00264095 0.0269899 
417 1 1 48.2569 30.6507 30.869 0.149914 -0.0429369 0.00669317 
418 1 1 48.0537 30.3325 34.4383 4.13149e-05 0.0471527 -0.00666272 
419 1 1 48.5769 30.1554 33.683 -0.24282 0.0275776 -0.0901133 
420 1 1 48.5944 30.323 32.6925 0.0491443 0.134389 -0.169604 
421 1 1 47.054 28.6979 35.987 -0.207609 -0.0732541 -0.205942 
422 1 1 46.806 27.914 36.344 0.0180185 -0.167191 0.108638 
423 1 1 46.4006 27.0178 36.5354 0.0482023 0.104419 -0.0456748 
424 1 1 44.6348 24.9127 36.314 0.170417 -0.0484438 0.0427774 
425 1 1 44.33 24.0697 35.8992 -0.242018 -0.0820164 -0.0467582 
426 1 1 44.0114 23.1981 35.3917 0.0448498 0.0813949 0.158685 
427 1 1 43.7846 22.4525 34.7864 0.137328 0.0809677 -0.00235896 
428 1 1 43.4806 21.8833 33.9739 0.0519925 0.0237958 0.150051 
429 1 1 43.7639 20.096 30.3244 0.127412 0.079249 0.119943 
430 1 1 43.3422 21.2062 33.284 -0.0440137 0.147322 -0.112657 
431 1 1 43.2995 20.8382 32.2918 0.0819988 -0.0563942 0.0362293 
432 1 1 43.507 20.3555 31.3244 0.00162389 0.00368488 -0.00137092 
433 1 1 45.9694 26.0268 36.536 -0.0300208 -0.00186744 -0.0335426 
434 1 1 45.6579 24.9502 36.3921 0.0575451 0.090034 0.00564207 
435 1 1 48.1671 30.1994 29.9339 -0.0662176 -0.0845495 -0.0344848 
436 1 1 47.9509 29.7316 29.031 0.0400626 -0.200984 -0.0533125 
437 1 1 47.777 29.0042 28.3485 0.102733 0.0459017 -0.177004 
438 1 1 44.0808 19.8412 29.3286 0.00233333 0.0487334 -0.105716 
439 1 1 43.9772 20.4517 28.5928 0.251854 -0.105114 0.111155 
440 1 1 47.5683 28.3629 27.8437 0.0582175 0.0838976 -0.0140435 
441 1 1 44.0575 21.1669 28.0322 -0.153002 -0.0315356 0.0643722 
442 1 1 44.2422 21.9645 27.465 -0.0248583 -0.131657 -0.0121034 
443 1 1 44.4349 22.762 27.048 -0.0269109 -0.251102 -0.0581155 
444 1 1 47.0973 27.6622 27.2419 -0.109453 0.147975 0.0277141 
445 1 1 44.6998 23.6466 26.6753 0.134604 -0.103833 -0.094588 
446 1 1 45.1774 24.5068 26.4687 0.0815285 -0.000254924 -0.0608136 
447 1 1 45.6382 25.45 26.5311 0.18631 0.0182122 -0.0100955 
448 1 1 46.6363 26.9907 26.9033 0.108123 0.0103514 0.0676096 
449 1 1 46.2221 26.2014 26.6488 0.102753 0.121966 -0.158395 
450 1 1 48.0702 29.524 34.9253 -0.0363529 0.196409 0.200837 
451 1 1 47.828 28.7016 35.3847 0.150097 0.0432248 -0.141018 
452 1 1 48.7807 30.1698 31.6314 0.0662812 0.141913 0.00268044 
453 1 1 48.7358 29.8764 30.6971 -0.0912295 -0.0648313 -0.0362045 
454 1 1 48.6618 29.5692 34.2314 -0.183716 0.174786 0.0877512 
455 1 1 49.0163 29.6138 33.38 -0.184258 0.0844692 0.0880792 
456 1 1 49.1784 29.6095 32.3887 0.0698 0.164257 -0.0623917 
457 1 1 47.6909 27.9142 35.8249 0.0575701 0.0766302 -0.121566 
458 1 1 47.3284 27.0786 36.1325 0.0710148 -0.0811212 -0.0232253 
459 1 1 46.9851 26.2197 36.3235 0.0655741 -0.0332907 -0.0338166 
460 1 1 45.2925 24.0787 36.1513 -0.172693 0.106408 -0.166828 
461 1 1 44.8728 23.2472 35.7319 -0.0292375 -0.0361347 -0.007184 
462 1 1 44.6207 22.3777 35.1851 -0.0378584 -0.0311741 0.0169859 
463 1 1 44.3206 21.6403 34.529 0.224934 0.0580905 0.139497 
464 1 1 44.0993 21.0462 33.8669 -0.118018 -0.00367478 -0.11736 
465 1 1 44.3275 19.326 30.0541 -0.264807 0.0371606 -0.0667731 
466 1 1 43.976 19.5585 31.1034 -0.0660794 -0.166346 -0.0981113 
467 1 1 43.8727 20.4242 33.0013 0.0971892 -0.0588935 0.0780651 
468 1 1 43.832 20.0202 32.1487 0.00178632 0.264593 -0.00526228 
469 1 1 46.5219 25.2118 36.3338 0.0533382 -0.124733 0.0394396 
470 1 1 46.2444 24.2069 36.2063 0.0883716 -0.0330737 -0.199746 
471 1 1 48.7039 29.4319 29.819 -0.0912066 0.0679083 -0.0609466 
472 1 1 48.5633 28.9494 28.9933 -0.0684851 -0.0454869 -0.0984742 
473 1 1 48.4546 28.1672 28.3084 0.0857849 0.117835 0.0517783 
474 1 1 44.6242 19.0431 29.0846 0.0981216 -0.0996352 0.0491308 