ITEM: TIMESTEP
100000000
ITEM: NUMBER OF ATOMS
51222
ITEM: BOX BOUNDS pp pp pp
0 62
0 62
0 62
ITEM: ATOMS id mol type x y z vx vy vz 
1 1 3 23.1553 26.3837 10.8348 -0.0547282 0.0581693 -0.0497526
2 1 1 22.2654 26.6176 10.7483 -0.159486 -0.190993 -0.0454959
3 1 3 22.7397 26.8104 11.5329 -0.0116608 0.0455904 -0.15332
4 1 1 21.8273 26.8004 11.4309 -0.0684753 0.0110945 -0.00956705
5 1 3 23.5868 26.5939 11.6266 0.064508 0.0294441 0.048665
6 1 1 22.3114 26.8761 12.4373 0.00535458 -0.176402 0.0234894
7 1 3 21.3281 26.9034 12.3147 0.0930017 -0.073586 -0.129111
8 1 1 22.8954 26.0447 10.0725 0.0672235 -0.0490785 0.00820748
9 1 3 21.9291 26.111 9.91926 -0.0353441 0.16834 -0.0335242
10 1 1 21.3718 26.482 10.5255 -0.0509467 0.000585587 0.0738155
11 1 3 20.9714 26.6754 11.3191 -0.0678239 -0.157271 -0.0402549
12 1 1 20.3991 26.7072 11.9715 0.00470694 0.0496154 0.0514876
13 1 3 23.7529 25.865 10.4396 0.00166307 0.0517959 -0.0343752
14 1 1 23.9295 26.1953 11.0722 0.0528834 -0.0599127 0.0739756
15 1 3 24.4317 26.118 11.6361 -0.0844704 -0.067829 -0.0900373
16 1 1 23.2094 26.7565 12.4108 0.0547588 0.0797819 -0.0332348
17 1 3 24.1353 26.4003 12.4061 0.021994 -0.0423769 -0.108287
18 1 1 20.539 26.8282 12.7774 0.130504 -0.0520246 -0.185017
19 1 3 21.196 26.9279 13.3171 -0.0745361 -0.0953367 0.143299
20 1 1 21.9466 26.9228 13.2778 0.0764813 0.0696336 -0.119652
21 1 3 22.8791 26.8247 13.259 -0.190618 0.143745 -0.270817
22 1 1 24.1949 25.3685 10.0796 -0.0153299 0.12694 -0.173091
23 1 3 23.268 25.4858 9.58383 -0.253752 -0.0852335 -0.154247
24 1 1 22.3517 25.5085 9.30427 -0.102023 0.0344948 0.0462815
25 1 3 21.6017 25.529 9.24632 0.0592156 0.113783 0.042839
26 1 1 21.0002 25.8576 9.77757 0.169315 -0.0886084 -0.0253743
27 1 3 20.4143 26.1653 10.4715 -0.0250457 0.0862229 0.174806
28 1 1 19.8367 26.4985 12.7069 0.0132758 -0.177423 -0.0465936
29 1 3 19.9979 26.2834 11.207 -0.112231 0.00407484 0.079014
30 1 1 19.5479 26.2605 11.9878 -0.0253249 -0.197039 -0.0855795
31 1 3 24.6236 25.548 10.868 -0.0908561 -0.00384673 -0.112154
32 1 1 24.9588 25.6221 11.6599 0.0893708 0.089724 -0.0147386
33 1 3 24.9369 25.9197 12.4539 0.00321494 -0.00548263 -0.0203245
34 1 1 23.834 26.5579 13.2796 0.056104 0.0897047 -0.0247816
35 1 3 24.6992 26.1046 13.2151 -0.142849 0.125684 0.0185274
36 1 1 20.258 26.6846 13.4888 -0.0186056 0.0555816 -0.0872841
37 1 3 20.7506 26.6306 14.1486 -0.0181186 0.0554168 -0.109751
38 1 1 19.4953 26.2591 13.362 -0.0366726 -0.0776498 0.0231649
39 1 3 21.5729 26.7563 14.1633 0.160687 0.150272 -0.00255548
40 1 1 22.3641 26.6411 14.1924 0.00106626 0.0966557 0.115639
41 1 3 23.3315 26.4858 14.1954 -0.133371 -0.0892333 0.0866824
42 1 1 24.8168 24.8127 10.1299 0.0584799 -0.166705 0.0326083
43 1 3 24.3035 24.5404 9.42547 0.0545243 -0.0618418 0.0422593
44 1 1 23.6138 24.8568 9.20854 -0.195704 0.0355251 0.0246468
45 1 3 22.8795 25.0377 9.006 0.021806 0.0644977 -0.0446534
46 1 1 22.1956 24.8212 8.73069 -0.123542 -0.0989322 -0.0386136
47 1 3 21.4219 24.7217 8.54032 -0.0594975 0.110959 0.0595087
48 1 1 20.7721 25.1818 9.03147 -0.124455 -0.0804591 0.159071
49 1 3 20.0353 25.511 9.80976 -0.0443058 0.0783717 -0.137115
50 1 1 19.5529 25.7801 10.5961 0.0323383 0.0158342 -0.0947551
51 1 3 19.0261 26.0104 12.692 0.135339 0.0415344 0.108853
52 1 1 19.1406 25.7724 11.379 0.130002 0.138694 0.0973345
53 1 3 18.9229 25.89 12.0758 0.0194544 -0.0133797 -0.141075
54 1 1 25.28 24.8048 10.7176 0.0414011 0.115489 0.0802395
55 1 3 25.4007 23.966 10.0762 -0.0985036 0.0153047 0.112041
56 1 1 25.3082 25.1421 11.3092 0.0893535 0.0239336 -0.0549392
57 1 3 25.4957 25.2666 12.1878 0.184628 0.0390958 -0.154776
58 1 1 25.897 24.3528 11.3869 -0.0921223 0.0506115 -0.152533
59 1 3 25.4324 25.4868 13.17 0.0811347 0.317326 -0.0283688
60 1 1 24.2749 26.1459 14.158 0.30966 -0.0356249 -0.0923309
61 1 3 25.1195 25.6377 13.9658 -0.0665891 0.0402143 0.0923873
62 1 1 21.191 26.4746 14.7592 0.0888998 0.116518 0.144648
63 1 3 19.8097 26.2596 14.2012 0.130424 -0.224987 -0.108193
64 1 1 20.4262 26.2 14.9106 0.183316 -0.0579377 0.0203968
65 1 3 18.6844 25.6964 13.3918 0.0697378 0.0945843 -0.11648
66 1 1 19.0968 25.8413 14.1548 0.0791223 0.0264559 -0.090303
67 1 3 21.8301 26.3772 14.9594 -0.00580304 0.00277182 -0.0930785
68 1 1 22.7604 26.2668 14.9942 0.0257818 -0.0362197 -0.02603
69 1 3 23.7309 26.0126 14.9663 -0.126566 -0.0422961 0.0309106
70 1 1 24.7265 24.1621 9.49609 0.0529896 0.231828 0.0334992
71 1 3 24.0232 24.0069 8.98541 -0.0496 0.0292421 0.0329302
72 1 1 23.0129 24.1098 8.56045 0.00550143 0.0329188 0.053054
73 1 3 22.0674 23.9929 8.21278 0.0079778 -0.0619147 0.0767423
74 1 1 21.1708 23.9315 8.21006 0.216075 0.016728 0.0301616
75 1 3 20.505 24.3067 8.5384 -0.0420921 0.115469 0.163107
76 1 1 19.8363 24.7983 9.13479 0.0988716 0.0803559 -0.0589915
77 1 3 19.2457 25.1249 9.99375 0.143832 -0.110905 -0.00907547
78 1 1 18.7628 25.2217 10.7349 0.0791515 -0.0649265 -0.0124398
79 1 3 18.4523 25.5432 12.5733 0.0177754 0.0540571 0.0681432
80 1 1 18.3419 25.2262 11.6327 0.0182432 -0.0505019 0.00263551
81 1 3 17.9983 25.126 13.1061 0.338849 -0.0112986 0.182228
82 1 1 25.2864 23.1411 9.52191 0.0209951 -0.122424 -0.0284988
83 1 3 25.8951 23.8294 10.7372 -0.121094 -0.0102074 -0.0081724
84 1 1 25.7405 23.3302 10.1598 -0.00481679 -0.145903 0.0762832
85 1 3 26.0095 24.492 11.9486 0.138474 0.049882 0.0138708
86 1 1 25.986 24.7202 12.8411 0.0383819 -0.0296135 -0.0665415
87 1 3 26.2504 23.6903 11.6051 0.108222 -0.010397 -0.0516838
88 1 1 25.8374 24.8971 13.762 0.0305642 -0.123197 0.0339082
89 1 3 24.7154 25.5651 14.8651 0.0310216 -0.0960675 0.103912
90 1 1 25.5046 24.9196 14.5889 0.0494138 0.103503 0.0325649
91 1 3 21.2095 25.9964 15.5339 0.061131 0.0329225 0.0826114
92 1 1 19.6514 25.7932 14.9357 0.117659 -0.0808497 0.0898045
93 1 3 20.2952 25.6102 15.6549 -0.234865 0.0187095 -0.0958193
94 1 1 18.3875 25.2611 14.0155 0.0296583 0.050931 -0.0152649
95 1 3 18.9405 25.3222 14.8926 0.0446115 0.0660156 -0.0533627
96 1 1 22.212 25.9175 15.6912 -0.115566 0.145688 0.00496405
97 1 3 23.1913 25.7703 15.6885 0.0950908 0.0729985 -0.0787431
98 1 1 24.1849 25.3147 15.6049 -0.168539 -0.188194 -0.0346697
99 1 3 24.5747 23.2836 9.06 0.141684 0.101372 0.0521266
100 1 1 23.7274 23.1477 8.55625 0.0378866 0.110983 0.0837161
101 1 3 22.7558 23.0836 8.17514 0.131209 -0.0423129 0.0044813
102 1 1 21.8338 22.9849 7.96812 0.0515618 -0.0752325 -0.0639935
103 1 3 20.4359 23.6052 8.33645 -0.138661 0.0684506 0.038803
104 1 1 20.9187 23.0881 8.13991 0.0450495 -0.00759055 -0.0828633
105 1 3 19.5719 23.8033 8.79651 -0.145607 0.134358 -0.000710207
106 1 1 18.9788 24.3749 9.59605 -0.0508163 -0.101567 0.0169032
107 1 3 18.4483 24.5478 10.3056 -0.0183615 0.094797 -0.0328777
108 1 1 18.1507 24.6767 10.9152 -0.175949 -0.103206 -0.0318487
109 1 3 17.763 24.6942 13.8581 0.0337835 0.0413172 0.203952
110 1 1 17.8218 24.8676 12.2745 -0.12828 0.138751 0.00216202
111 1 3 17.7236 24.4164 11.4542 -0.0323324 0.0579275 0.0704257
112 1 1 17.3602 24.3777 13.1249 0.00973804 -0.0865983 0.0303789
113 1 3 25.8521 22.5805 10.0261 -0.0794584 0.0128663 -0.0450692
114 1 1 25.1912 22.4644 9.29917 0.00537224 0.019621 -0.124409
115 1 3 26.348 22.813 10.8257 0.0608523 -0.0123666 -0.0820962
116 1 1 26.2541 21.9262 10.4857 -0.0569918 0.00329077 -0.031454
117 1 3 26.3717 23.7943 12.4746 0.0494606 -0.132345 0.00981614
118 1 1 26.3339 23.975 13.4621 0.105092 0.0250422 -0.0658999
119 1 3 26.6569 22.9522 12.0273 -0.157254 -0.0287037 -0.0118457
120 1 1 26.0293 24.1734 14.4032 0.125324 -0.0505824 -0.00333887
121 1 3 25.0351 24.8185 15.416 -0.114394 0.0374701 -0.0657526
122 1 1 25.7144 24.1089 15.0629 -0.0922108 0.0449527 0.155777
123 1 3 21.6512 25.3963 16.2902 -0.23077 0.0132949 0.0239705
124 1 1 20.8796 25.4459 16.1359 0.160488 0.249483 -0.0421767
125 1 3 19.5268 25.2828 15.6092 -0.034077 0.116195 -0.032127
126 1 1 20.3423 25.1236 16.2948 -0.108695 0.0237418 -0.00978747
127 1 3 18.1486 24.7786 14.7203 -0.0174258 -0.0733613 -0.0378657
128 1 1 18.6843 24.6501 15.512 0.199794 -0.00990407 0.0215501
129 1 3 17.5256 24.1739 14.5834 0.159878 0.0281842 -0.04723
130 1 1 24.5585 24.5453 16.1215 0.00754801 0.0100994 0.0806734
131 1 3 22.5322 25.3468 16.27 -0.0696379 0.106718 0.0943735
132 1 1 23.6961 24.8737 16.3443 0.0223668 -0.00296411 0.152398
133 1 3 24.4103 22.4111 8.72014 -0.0892658 -0.00920152 -0.0259786
134 1 1 23.4473 22.4153 8.22856 -0.122727 -0.0363745 0.078711
135 1 3 21.2137 22.3639 7.95211 -0.0382228 -0.107025 -0.0229299
136 1 1 22.581 22.2599 7.97344 0.0477499 -0.0164687 0.114482
137 1 3 21.8658 22.0044 7.89691 -0.00275868 -0.0960726 -0.0934121
138 1 1 20.0388 22.9588 8.39379 0.0410313 -0.0157696 0.0263184
139 1 3 20.5435 22.2956 8.10976 -0.0889839 0.0220012 -0.063142
140 1 1 19.2301 22.7919 8.79534 0.100675 -0.0343268 0.0217494
141 1 3 18.7665 23.4854 9.30481 0.178358 -0.0935766 -0.14723
142 1 1 18.4166 23.877 9.86125 0.0270288 -0.120559 0.0789497
143 1 3 17.8282 23.8911 10.6534 0.0401582 -0.0214048 -0.0417895
144 1 1 17.1397 23.9882 13.7993 0.129208 -0.0555683 -0.144104
145 1 3 17.2885 24.2152 12.1656 -0.123905 0.00935859 -0.0555157
146 1 1 17.3204 23.8802 11.4896 0.0691725 0.257093 -0.0226475
147 1 3 16.8195 23.6393 12.9043 -0.0736661 -0.121046 -0.0531158
148 1 1 25.7423 21.7429 9.75233 -0.144586 -0.0800606 0.0829242
149 1 3 24.9496 21.6396 8.97139 -0.0343015 -0.0244436 -0.0705262
150 1 1 26.7181 22.0344 11.5146 -0.0709231 0.0122657 -0.201508
151 1 3 26.0155 21.0849 10.182 -0.0190655 -0.087453 -0.0755762
152 1 1 26.5327 21.1143 11.0542 0.0949631 0.00523884 0.0268301
153 1 3 26.69 23.1032 13.0057 -0.00530943 -0.0507897 0.0347772
154 1 1 26.4711 23.2273 14.044 -0.0578169 0.167062 0.151335
155 1 3 26.8893 22.1737 12.5219 0.00728541 -0.048713 -0.0671948
156 1 1 26.0864 23.3434 14.9615 -0.15234 0.133374 -0.10472
157 1 3 25.2553 24.0672 15.851 0.0795059 -0.13441 -0.0347612
158 1 1 25.7331 23.5271 15.5668 0.0799325 -0.020719 0.045446
159 1 3 21.9798 24.9228 16.7463 -0.0132231 -0.0991846 0.0247721
160 1 1 21.1074 24.7743 16.7698 0.161062 0.0300024 -0.0158544
161 1 3 20.1838 24.5017 16.7682 -0.0707551 0.0126438 0.2575
162 1 1 19.3622 24.6109 16.284 -0.112177 -0.0032236 -0.0687759
163 1 3 18.0142 24.2006 15.3724 -0.0702957 0.145189 0.117248
164 1 1 18.4486 24.173 16.0471 0.0728492 -0.117068 0.0530537
165 1 3 16.8627 23.5662 14.59 -0.118723 -0.162825 -0.0758913
166 1 1 17.3716 23.8004 15.2507 0.110201 0.0243144 0.0792904
167 1 3 24.1807 24.2667 16.6993 0.102161 -0.210386 -0.0773812
168 1 1 24.863 23.8396 16.4656 0.197817 0.134807 0.0308525
169 1 3 22.6742 24.6337 16.8733 0.00591356 -0.0418818 0.0536164
170 1 1 23.4575 24.1028 17.0948 -0.0384192 0.100669 -0.0939593
171 1 3 24.0385 21.4831 8.4125 0.0081018 0.0665232 -0.117531
172 1 1 23.2088 21.4542 8.13683 0.0152685 0.124976 0.086924
173 1 3 21.1343 21.7307 7.92897 -0.138279 0.117006 0.00202806
174 1 1 22.4072 21.1984 7.94593 0.124876 0.065748 0.102617
175 1 3 21.646 21.2753 7.92176 0.049376 0.105831 -0.174626
176 1 1 20.417 21.4306 8.17387 0.0424062 -0.0227084 0.00406466
177 1 3 19.7436 22.0186 8.37492 -0.0241965 0.0902394 0.0136351
178 1 1 18.9849 21.8843 8.92151 0.0823971 -0.104017 -0.0722161
179 1 3 18.5167 22.6435 9.32585 -0.113666 0.0542942 -0.0675916
180 1 1 18.1094 23.235 9.9195 -0.0607956 -0.192345 0.0346397
181 1 3 17.5942 22.9869 10.4287 -0.160809 0.0888866 -0.119461
182 1 1 17.2465 23.1937 11.0465 -0.00118692 0.00939867 -0.118939
183 1 3 16.4429 23.2211 13.697 -0.279599 -0.0440063 -0.0735088
184 1 1 16.2817 22.962 14.586 0.177204 -0.150615 0.0608468
185 1 3 16.8297 23.3106 11.998 0.134944 -0.0441575 0.0562792
186 1 1 16.4145 22.9928 12.8426 0.0656704 -0.0885095 -0.03753
187 1 3 25.3765 20.8713 9.43184 -0.0734071 0.161741 -0.0839707
188 1 1 24.606 20.7552 8.84552 -0.124278 -0.0217035 0.0674546
189 1 3 26.8116 21.3426 12.051 -0.185939 0.0280209 0.0753268
190 1 1 26.7278 20.6093 11.8638 0.0622052 -0.0662818 -0.220795
191 1 3 25.6753 20.34 9.91529 -0.156897 -0.086026 0.00939582
192 1 1 26.0702 20.3257 10.4997 -0.0590008 -0.119131 -0.0934368
193 1 3 26.4675 20.2853 11.2269 0.0608302 0.0814198 0.102418
194 1 1 26.7892 22.3061 13.548 -0.0334811 -0.0529481 -0.175101
195 1 3 26.4853 22.4533 14.5484 0.00720014 -0.0571379 -0.0825986
196 1 1 26.8734 21.4319 13.1359 -0.0761568 -0.0068095 0.0264567
197 1 3 25.9522 22.5699 15.5403 0.0495704 -0.0610215 0.174209
198 1 1 25.3945 23.1168 16.1977 -0.0561602 -0.0199641 0.00758878
199 1 3 21.8339 24.3382 17.1834 0.0596497 0.0689388 -0.0283082
200 1 1 21.2911 23.9448 17.4251 0.102914 -0.026692 -0.0150671
201 1 3 20.5517 24.1078 17.195 -0.131758 0.13041 0.0747792
202 1 1 19.6449 23.9652 17.0431 0.00214244 -0.112846 0.0035491
203 1 3 18.6926 23.7385 16.7342 0.0609092 0.154037 -0.079676
204 1 1 17.7397 23.5456 16.1303 0.0544625 -0.108766 -0.124858
205 1 3 16.7411 23.0287 15.4775 0.0660147 0.107879 0.106425
206 1 1 24.1782 23.5019 17.0289 0.152818 -0.107601 0.00628159
207 1 3 24.834 22.8866 16.8138 0.234574 -0.110865 -0.0197264
208 1 1 22.6716 23.8679 17.3826 -0.108671 -0.141065 -0.0436689
209 1 3 23.4554 23.2748 17.4447 -0.185839 0.196924 -0.0911483
210 1 1 23.6596 20.6045 8.44788 0.0386049 0.0161853 0.159686
211 1 3 22.8125 20.4472 8.22965 -0.045237 0.00400737 0.127114
212 1 1 21.0685 20.8468 8.04312 0.0316849 -0.053424 -0.118758
213 1 3 21.9345 20.3114 8.11952 -0.0636619 0.0429532 -0.00829037
214 1 1 20.3487 20.5456 8.43056 -0.0165442 -0.0204224 -0.178608
215 1 3 19.6249 21.2235 8.59572 0.0994649 0.0374556 0.141153
216 1 1 15.9835 22.4664 15.1165 0.153094 -0.00986374 0.0155582
217 1 3 15.8383 22.4541 14.189 0.176852 -0.125369 0.0159548
218 1 1 18.9107 20.9695 9.10758 0.0147495 0.0384357 0.0952432
219 1 3 18.3073 21.5638 9.4057 0.0104702 -0.108772 -0.0091257
220 1 1 17.8827 22.2394 10.0104 0.0391512 -0.0374993 0.0300109
221 1 3 17.1614 22.3882 10.713 -0.132716 0.0205743 -0.162484
222 1 1 16.6993 22.4481 11.4687 0.236614 -0.102384 0.162923
223 1 3 15.9615 22.5044 13.2828 -0.0422127 -0.013913 -0.119102
224 1 1 16.1797 22.3861 12.3624 -0.0583186 0.110177 -0.105384
225 1 3 24.0366 19.9368 8.76394 0.173439 -0.0499636 0.162937
226 1 1 24.9319 19.8412 9.41178 -0.0263363 -0.133667 0.0739933
227 1 3 26.7939 20.621 12.7506 0.039294 -0.013116 0.233675
228 1 1 26.6088 20.0327 12.3586 0.012015 -0.0506797 0.232234
229 1 3 26.4346 19.8067 11.7344 0.199535 -0.133335 -0.0641586
230 1 1 25.6539 19.6345 10.2997 0.0443281 -0.0420053 0.0123319
231 1 3 26.0941 19.7379 11.0583 0.247111 0.00221343 -0.142329
232 1 1 26.6788 21.5188 14.156 0.053467 -0.128246 0.128597
233 1 3 26.3609 21.5957 14.9931 -0.122883 -0.082758 0.118792
234 1 1 26.7122 20.7546 13.7165 -0.0138679 0.0664915 0.0882834
235 1 3 25.8339 21.4878 15.7689 0.186025 -0.238723 -0.072824
236 1 1 25.3412 22.2176 16.3756 0.0753203 0.00784286 -0.0683579
237 1 3 21.8588 23.5684 17.603 -0.123962 -0.147544 0.102285
238 1 1 20.8734 23.2348 17.8103 0.109584 -0.111798 0.0917046
239 1 3 19.923 23.3694 17.6148 0.0478493 0.12414 -0.10023
240 1 1 18.9783 23.3097 17.326 -0.168991 0.0962377 -0.0342321
241 1 3 17.9985 23.0042 17.0078 -0.148906 -0.0994492 -0.0361073
242 1 1 17.0704 22.7436 16.4976 -0.0687459 -0.0584756 0.170842
243 1 3 16.1855 22.2424 16.0561 -0.171972 -0.044011 0.0275021
244 1 1 24.1257 22.5922 17.3083 -0.13066 -0.0892772 -0.223631
245 1 3 24.7159 21.9165 16.9088 0.172763 -0.136761 -0.0164783
246 1 1 22.4961 23.0083 17.7333 0.0417646 -0.0592101 -0.0236143
247 1 3 23.2843 22.3848 17.6991 0.0757013 -0.0312786 0.209655
248 1 1 23.1026 19.7698 8.5514 0.0396582 -0.0428535 0.0760841
249 1 3 22.4581 19.7084 8.44493 -0.0257147 -0.0919196 0.0693789
250 1 1 21.0412 19.9654 8.3739 0.0827259 0.106327 0.160928
251 1 3 21.8384 19.3901 8.53095 -0.116956 -0.054024 -0.0347943
252 1 1 20.1384 19.7213 8.71868 -0.00584811 -0.157326 0.121111
253 1 3 19.4617 20.3621 8.78927 -0.0507541 -0.028295 0.0355867
254 1 1 15.4866 21.7145 15.5878 0.0876401 -0.198844 -0.0150846
255 1 3 15.386 21.8206 14.6235 -0.148672 0.0376162 0.169967
256 1 1 15.4967 21.8094 13.6576 0.101647 0.0130497 0.0394256
257 1 3 18.7134 20.1059 9.20604 0.0373168 -0.0646187 0.0610981
258 1 1 18.0879 20.7242 9.49142 -0.0147727 -0.00577453 -0.116449
259 1 3 17.7589 21.334 9.84227 0.00784549 -0.122174 -0.0265785
260 1 1 17.1411 21.4574 10.4065 0.025921 -0.171531 0.119387
261 1 3 16.5995 21.5769 11.0487 -0.000629023 -0.241198 -0.0392803
262 1 1 16.1162 21.7013 11.8258 -0.059278 0.0987694 0.0164752
263 1 3 15.744 21.7102 12.7651 0.0525834 -0.140995 0.0727311
264 1 1 23.5443 19.361 8.94661 0.0614021 -0.0239515 0.0226735
265 1 3 24.2096 19.1759 9.3585 0.10476 0.0743634 -0.0136989
266 1 1 24.9908 19.0916 10.1071 0.0470736 0.0598096 -0.0274997
267 1 3 26.5156 19.8748 13.3131 -0.149323 0.0615326 -0.0794173
268 1 1 26.3455 19.3862 12.5118 -0.149142 0.0280334 -0.027797
269 1 3 25.985 19.1335 11.6578 0.214671 0.0557075 -0.155421
270 1 1 25.5138 19.0666 10.9299 -0.126099 -0.129232 -0.0160329
271 1 3 26.3971 20.7702 14.6013 0.260602 0.0341042 -0.0692692
272 1 1 26.0887 20.9336 15.2791 -0.101067 0.0911763 0.133706
273 1 3 26.4159 20.1767 14.1938 0.129798 0.00979298 -0.0903401
274 1 1 25.66 20.5902 15.7639 -0.0465829 -0.0207052 0.0542439
275 1 3 25.2671 21.2734 16.4073 0.117168 -0.129918 0.0461758
276 1 1 21.6474 22.647 18.0231 -0.00695579 0.0705775 -0.00725874
277 1 3 21.0136 22.3241 18.158 0.0438466 -0.0777611 0.166372
278 1 1 20.1593 22.4616 18.1288 0.181715 -0.155593 -0.102278
279 1 3 19.2726 22.5884 17.9213 0.108801 -0.0463021 0.244342
280 1 1 18.4091 22.5918 17.675 -0.0234396 0.140877 0.0335966
281 1 3 17.4771 22.3353 17.3822 0.0861608 0.057658 -0.0866032
282 1 1 16.5748 22.0737 16.9312 -0.0726639 -0.0127737 -0.0411715
283 1 3 15.6795 21.5584 16.549 0.114511 -0.091159 -0.00140391
284 1 1 23.8992 21.724 17.4944 0.0246341 0.0631631 -0.0211381
285 1 3 24.4378 21.0568 17.0596 -0.133288 -0.0213374 0.0672053
286 1 1 22.4072 22.1491 18.0169 0.00217395 -0.0277979 -0.0961186
287 1 3 23.1369 21.4942 17.8902 0.0977524 -0.0173996 0.0472571
288 1 1 22.6174 19.0276 8.9664 -0.00474554 -0.0904484 0.0206318
289 1 3 21.025 19.1808 8.76511 -0.0175908 -0.0678255 0.0938403
290 1 1 21.6358 18.8091 8.9307 -0.0284812 0.0803296 -0.232735
291 1 3 14.9716 21.1409 16.0517 -0.0852758 0.128664 0.00745571
292 1 1 20.1498 18.8687 9.01095 -0.0529781 0.049031 0.0946082
293 1 3 19.3798 19.4036 9.05354 0.0539196 0.146723 -0.0145643
294 1 1 14.8763 21.1342 15.0806 -0.025383 -0.0192933 0.0050509
295 1 3 14.9562 21.1406 14.0604 0.218563 0.0549953 0.0305121
296 1 1 15.1479 21.0275 13.1638 -0.00988677 -0.10447 0.0514099
297 1 3 18.5691 19.1813 9.37597 0.189734 0.161657 -0.0097071
298 1 1 18.0959 19.9137 9.50609 -0.108615 -0.0115726 0.0850306
299 1 3 17.3995 20.376 10.0375 -0.0537155 -0.0632732 -0.0242671
300 1 1 16.6305 20.5883 10.7172 -0.197064 0.0280467 -0.0226012
301 1 3 16.0187 20.802 11.4118 -0.213375 0.145063 0.048999
302 1 1 15.5826 20.9635 12.2392 -0.0327734 -0.210433 -0.0256824
303 1 3 24.84 18.4611 10.6885 -0.0777469 0.0306445 0.0987509
304 1 1 23.4094 18.708 9.40194 0.192993 0.0734418 0.330452
305 1 3 24.2137 18.5618 9.94804 -0.0287549 -0.07138 -0.138653
306 1 1 26.1227 19.4926 14.0968 0.0303728 -0.0348808 -0.0330663
307 1 3 26.0298 18.9829 13.2958 0.157956 -0.0674027 0.13274
308 1 1 25.7956 18.715 12.4244 -0.172602 0.0249866 0.0078213
309 1 3 25.3604 18.499 11.5019 0.221118 -0.082648 -0.0884042
310 1 1 25.9829 19.9721 15.0028 0.0203182 -0.221099 0.0889433
311 1 3 25.3514 19.8508 15.8308 0.0315569 0.0478989 0.0516487
312 1 1 24.8669 20.3644 16.4735 0.16635 -0.0152003 -0.00792998
313 1 3 21.5736 21.7456 18.3458 -0.0784876 0.162611 0.00598143
314 1 1 20.6165 21.7548 18.4733 0.187119 -0.109318 -0.0879521
315 1 3 19.6057 21.8211 18.4612 0.115404 -0.0310999 -0.0329419
316 1 1 18.7362 21.8863 18.3529 0.176821 -0.0344146 -0.0312126
317 1 3 17.7916 21.8401 18.1044 0.00704914 0.0438446 -0.0515279
318 1 1 16.9176 21.6116 17.737 -0.0697867 0.0306515 -0.0562012
319 1 3 15.9676 21.2843 17.3534 -0.0620251 0.0286889 -0.133028
320 1 1 15.0512 20.8504 16.9405 0.00755 0.0326933 -0.134121
321 1 3 23.7389 20.8497 17.5701 -0.0507695 -0.0553034 -0.216825
322 1 1 24.1423 20.3537 17.2147 -0.200234 0.115269 0.319017
323 1 3 22.4883 21.2139 18.1705 0.117659 -0.0395148 -0.0451036
324 1 1 23.133 20.8035 17.9051 -0.00625335 -0.150919 -0.157392
325 1 3 22.7855 18.2622 9.58887 -0.0404677 0.0242522 -0.000654927
326 1 1 22.1507 18.2889 9.39643 0.0723042 0.0400946 -0.0536086
327 1 3 21.0635 18.3024 9.24442 0.0106252 -0.12134 0.0551631
328 1 1 20.0882 18.1324 9.32158 -0.24252 -0.0439656 0.096364
329 1 3 14.3766 20.3994 16.4002 0.0843817 0.0805741 -0.110389
330 1 1 14.3271 20.4805 15.4684 0.183954 0.0618564 0.0117302
331 1 3 19.2963 18.4792 9.31476 0.162096 0.0799507 -0.0144171
332 1 1 14.4796 20.3936 14.4596 -0.0585646 -0.0631712 -0.0273713
333 1 3 14.611 20.2997 13.5331 -0.0396965 0.0809403 -0.0287637
334 1 1 14.9943 20.2091 12.6388 0.105233 -0.00305712 0.237969
335 1 3 18.4587 18.4773 9.59103 -0.0459707 -0.00944058 -0.0824951
336 1 1 17.6568 19.1518 9.84997 0.0652981 -0.0404169 0.124492
337 1 3 16.7955 19.5356 10.418 -0.109702 -0.118551 -0.187389
338 1 1 16.0659 19.8806 11.0066 0.0279504 0.0641503 -0.0740764
339 1 3 15.4894 20.0306 11.7377 0.132397 -0.0781734 0.191138
340 1 1 25.719 19.1342 14.5825 -0.148881 0.126172 -0.0923247
341 1 3 24.6833 17.8802 11.4416 -0.00883986 -0.0548812 -0.16423
342 1 1 24.0902 17.8062 10.755 0.000620106 0.134358 0.0332346
343 1 3 23.3715 17.9922 10.1318 -0.0512008 -0.0150949 0.0949903
344 1 1 25.6489 18.6802 14.0889 -0.113137 0.132079 0.150739
345 1 3 25.5083 18.2515 13.2311 0.0376343 0.0704347 -0.0638654
346 1 1 25.1789 18.0181 12.2977 0.0283616 0.0619024 -0.272093
347 1 3 24.537 17.346 12.2521 0.0791775 -0.0123293 0.12027
348 1 1 25.4863 19.3373 15.3534 -0.00222041 -0.20245 0.0132855
349 1 3 24.8826 19.3957 16.1446 0.133827 -0.0026426 -0.0752594
350 1 1 24.2434 19.6003 16.931 0.230151 -0.0459819 0.069017
351 1 3 21.8248 20.8649 18.5766 -0.128236 -0.190047 0.00878799
352 1 1 21.0367 21.0025 18.7786 0.110379 -0.119595 0.192091
353 1 3 20.0911 21.1352 18.8463 0.10545 0.0822261 0.061784
354 1 1 19.1096 21.1047 18.9045 0.131319 -0.107271 0.0343407
355 1 3 18.1417 21.1569 18.7916 -0.0124344 -0.0671968 0.101968
356 1 1 17.2757 21.081 18.5445 -0.0263003 -0.00461555 0.0309905
357 1 3 16.3399 20.9055 18.1503 -0.0593058 -0.131168 -0.132883
358 1 1 15.424 20.5823 17.8113 -0.0328987 -0.036299 0.0416612
359 1 3 14.4961 20.1701 17.3794 0.101185 0.167591 -0.116279
360 1 1 23.4884 19.8313 17.7307 -0.00195693 -0.0291536 -0.073698
361 1 3 22.5858 20.1188 18.4075 -0.197457 0.0588022 -0.213929
362 1 1 22.4885 17.6974 9.9904 0.151344 -0.0512566 0.0556898
363 1 3 21.6118 17.5962 9.75975 0.0494089 0.0334136 0.13375
364 1 1 20.5533 17.4925 9.64586 -0.124571 0.1044 0.186316
365 1 3 19.6663 17.6036 9.57485 0.0980329 0.0219305 0.0644277
366 1 1 13.8374 19.5842 16.849 0.16212 0.137978 0.0736869
367 1 3 13.7982 19.6912 15.9458 -0.0567192 -0.206658 -0.0607027
368 1 1 13.8585 19.6517 14.9049 -0.119609 0.0296627 0.231752
369 1 3 18.7507 17.6499 9.70647 -0.0307738 0.218555 -0.117517
370 1 1 14.076 19.5899 13.9922 -0.0593837 0.112715 -0.1132
371 1 3 14.4208 19.4773 13.0807 0.0749162 -0.202343 0.168573
372 1 1 14.8663 19.4163 12.2544 0.00484945 0.0769587 -0.127719
373 1 3 17.8816 18.0817 9.93902 -0.0507447 -0.115346 0.033879
374 1 1 17.0472 18.5481 10.3207 -0.0104501 0.0859995 -0.0674226
375 1 3 16.2386 18.8598 10.8508 -0.0125504 -0.00222952 -0.0378383
376 1 1 15.4557 19.0789 11.4752 -0.0285234 -0.0730902 -0.149646
377 1 3 25.1661 18.4314 14.8716 0.0787921 -0.101279 0.0855133
378 1 1 24.0378 17.2161 11.5165 -0.121127 0.139113 -0.15352
379 1 3 23.5109 17.2963 10.9302 -0.196579 -0.0647486 0.0838274
380 1 1 22.7164 17.0582 10.6877 0.0694678 -0.116244 -0.0117102
381 1 3 25.0873 17.8823 13.9582 0.0602224 -0.0142397 -0.184587
382 1 1 24.9301 17.5969 13.075 -0.0168833 -0.208059 0.0870346
383 1 3 24.2983 16.8268 12.9292 0.117509 -0.0491271 0.140253
384 1 1 24.0261 16.7667 12.2061 0.0043251 -0.0556063 -0.0228509
385 1 3 24.8226 18.5945 15.7954 0.101835 0.171429 0.142573
386 1 1 24.2362 18.8204 16.6388 -0.00544193 0.0933958 -0.0147571
387 1 3 23.6425 18.9055 17.4108 0.130075 -0.215329 -0.0596197
388 1 1 21.665 20.2397 18.8608 -0.170513 0.107696 -0.158448
389 1 3 20.6382 20.3717 19.1459 -0.182148 -0.0221245 0.0711308
390 1 1 19.622 20.3937 19.3033 0.144485 -0.134913 -0.133264
391 1 3 18.5574 20.4767 19.2948 0.0402577 -0.0150123 -0.0416419
392 1 1 17.6292 20.4282 19.1444 0.261539 0.238321 0.0952499
393 1 3 16.669 20.355 18.8931 -0.0623901 0.0515754 0.0946468
394 1 1 15.7589 20.1297 18.6195 -0.0571516 -0.01947 0.156111
395 1 3 14.7731 19.8844 18.2054 0.049115 0.16021 0.206339
396 1 1 13.9056 19.4081 17.8134 0.136268 -0.142724 0.208416
397 1 3 22.9132 19.1096 18.1921 -0.0147694 -0.0448687 0.116108
398 1 1 22.0612 19.3609 18.8225 0.000712578 -0.00757292 0.149662
399 1 3 21.9067 16.9471 10.4248 0.110026 0.172383 -0.00457918
400 1 1 20.9945 16.8406 10.1215 0.102296 0.107233 0.21336
401 1 3 20.033 16.7605 9.98882 -0.0250979 -0.0409054 0.0222586
402 1 1 13.2213 18.9236 17.3839 -0.0640218 0.119407 -0.063937
403 1 3 19.0317 16.9108 10.0289 -0.114146 0.0408618 -0.0271594
404 1 1 13.2049 18.9539 16.3828 -0.0417235 0.218188 -0.124789
405 1 3 13.3441 19.0048 15.4191 0.0547246 0.121997 -0.13727
406 1 1 13.5279 18.8675 14.4333 -0.00976097 0.227173 -0.0606914
407 1 3 18.0637 17.2221 10.104 0.0880775 -0.0236871 0.00528121
408 1 1 13.8646 18.7543 13.6013 -0.0824773 -0.123131 -0.0191068
409 1 3 14.3112 18.6349 12.693 0.0669528 0.0371406 -0.0358554
410 1 1 14.8978 18.3758 11.9305 0.0200118 -0.18097 0.137045
411 1 3 17.2064 17.5184 10.3271 -0.12592 -0.149538 -0.17957
412 1 1 16.4378 17.8453 10.765 0.128038 0.0414357 -0.0970642
413 1 3 15.6727 18.0564 11.2586 0.0244286 -0.0705546 0.0159889
414 1 1 24.7078 17.5596 14.5688 0.038751 0.0827683 -0.104234
415 1 3 24.4466 17.644 15.3428 0.204668 0.216229 0.0132275
416 1 1 23.2427 16.5196 11.6032 -0.285377 -0.0287624 0.0653673
417 1 3 22.2543 16.2817 11.1749 -0.0923979 -0.06203 0.0761572
418 1 1 24.4844 17.072 13.8282 -0.182266 0.016902 -0.0622431
419 1 3 24.0037 16.3296 13.4561 -0.112243 -0.0152512 -0.0674181
420 1 1 23.4305 16.0854 12.6439 -0.00670286 -0.0789196 -0.0308137
421 1 3 24.2206 17.9601 16.1306 0.0272325 0.114296 -0.121113
422 1 1 23.7004 18.0715 17.0241 0.00564989 0.0682523 0.193711
423 1 3 23.0749 18.1998 17.8261 -0.00393237 -0.037374 0.193784
424 1 1 21.1663 19.581 19.2019 -0.100048 0.0752306 -0.141356
425 1 3 20.0956 19.6331 19.5249 -0.140173 0.183705 -0.0223153
426 1 1 19.0158 19.7532 19.695 -0.263195 0.219743 -0.0179593
427 1 3 18.113 19.679 19.6971 0.0141505 -0.0350012 -0.0254782
428 1 1 17.126 19.6793 19.5426 -0.185906 0.0097246 -0.0734749
429 1 3 13.3706 18.6633 18.2766 -0.0872581 -0.138034 0.156069
430 1 1 16.1594 19.6165 19.31 0.0841197 -0.178722 0.147583
431 1 3 15.185 19.4295 19.0334 -0.0353701 -0.0428172 0.121587
432 1 1 14.2498 19.1224 18.6572 -0.206762 -0.137221 0.0132164
433 1 3 22.3578 18.4788 18.5719 0.0259217 0.162603 0.000588093
434 1 1 21.4822 18.6781 19.2222 0.0911024 -0.212859 -0.0370321
435 1 3 21.3438 16.2003 10.8014 0.0907576 -0.00155525 0.0780863
436 1 1 20.4639 16.1159 10.5519 -0.00762354 0.185688 -0.207542
437 1 3 19.4244 16.1466 10.4099 0.0179046 0.0764845 0.0206281
438 1 1 12.6767 18.1592 17.7625 0.0264218 -0.0851993 -0.0488757
439 1 3 12.6449 18.2715 16.8171 -0.0832246 0.140837 -0.0958307
440 1 1 18.4369 16.3043 10.4315 -0.242792 -0.111624 -0.0633426
441 1 3 12.7789 18.2678 15.7861 -0.0320786 -0.11661 0.0949191
442 1 1 13.0192 18.115 14.8317 -0.0209563 -0.00617685 -0.120414
443 1 3 13.3364 17.9645 13.9217 0.0260549 -0.0315059 -0.0925343
444 1 1 17.5397 16.5167 10.5446 0.0133776 -0.0403265 0.148164
445 1 3 13.8735 17.8309 13.1048 0.0905892 0.0783543 -0.1688
446 1 1 14.4213 17.6411 12.3435 -0.123791 -0.105046 0.155493
447 1 3 15.0695 17.3527 11.611 0.0592415 0.00112297 -0.12387
448 1 1 16.6571 16.8137 10.7757 -0.0805408 0.0864434 -0.0058771
449 1 3 15.8771 16.9972 11.1794 -0.0320177 0.0529967 -0.124873
450 1 1 24.2532 16.9829 14.7761 0.136724 -0.105158 -0.0387377
451 1 3 23.946 16.9957 15.701 0.0606633 -0.228273 -0.0402506
452 1 1 22.4983 15.794 12.0117 0.00262202 -0.0850146 -0.0540296
453 1 3 21.6618 15.6135 11.5307 0.00408729 -0.00591215 -0.0848369
454 1 1 23.8461 16.2729 14.2376 -0.109771 -0.0986212 -0.00663194
455 1 3 23.4376 15.8255 13.5349 -0.155256 -0.127774 -0.109438
456 1 1 22.7223 15.3713 12.9808 0.0369932 0.0591674 0.00391683
457 1 3 23.6758 17.2073 16.5649 0.0363651 -0.234036 0.0268527
458 1 1 23.2006 17.3156 17.3683 -0.225311 -0.103444 0.0568187
459 1 3 22.5559 17.4433 18.2368 0.0309691 -0.0306662 -0.0411308
460 1 1 20.5233 18.8621 19.5957 0.154326 -0.0174851 -0.0396961
461 1 3 19.5841 19.0033 19.9372 0.185911 0.0770592 -0.0391736
462 1 1 18.5708 18.9308 20.1004 0.116245 0.174997 -0.0910824
463 1 3 17.5722 19.0292 20.1306 -0.0654267 0.0138383 0.0229701
464 1 1 16.5485 19.0186 20.0463 -0.12563 -0.208918 0.0317107
465 1 3 12.8568 17.9892 18.6483 -0.0774403 -0.196914 -0.0549054
466 1 1 13.7079 18.3965 19.1287 -0.144394 -0.00698234 -0.0789668
467 1 3 15.5879 18.932 19.8087 -0.0518769 -0.109732 0.209419
468 1 1 14.6377 18.7297 19.5002 0.0392409 0.0921212 -0.0698373
469 1 3 21.8143 17.6974 18.9764 -0.024653 -0.0593816 0.0184748
470 1 1 20.9596 17.9528 19.561 -0.0753014 0.136399 0.129392
471 1 3 20.7991 15.4263 11.1713 -0.155512 0.0469039 0.11037
472 1 1 19.8576 15.4238 10.8879 -0.0265393 -0.133311 0.0202938
473 1 3 18.8416 15.4642 10.8003 0.128865 -0.0485354 -0.0636438
474 1 1 12.1723 17.5185 18.1522 -0.151554 0.137781 0.180765
475 1 3 12.0251 17.6117 17.1885 0.00365133 -0.0419595 0.0899041
476 1 1 12.2009 17.5809 16.2061 -0.185612 0.0756347 0.0245212
477 1 3 17.9199 15.6186 10.9292 0.0280734 0.112363 -0.0956145
478 1 1 12.4277 17.4227 15.2541 0.013185 -0.0459958 -0.226779
479 1 3 12.756 17.2751 14.3321 -0.0159476 -0.0409477 -0.0222565
480 1 1 13.2693 17.145 13.453 0.234702 0.0698078 -0.183088
481 1 3 16.9609 15.8 11.0172 0.225329 0.105226 0.0723206
482 1 1 13.9092 16.842 12.6769 0.0391409 0.145644 -0.241048