ITEM: TIMESTEP
0
ITEM: NUMBER OF ATOMS
51222
ITEM: BOX BOUNDS pp pp pp
0 62
0 62
0 62
ITEM: ATOMS id mol type x y z vx vy vz 
1 1 3 30.7679 20.4455 6.94939 0.1921 0.144074 -0.0380525 
2 1 1 30.4446 21.045 7.48349 0.101903 -0.232315 -0.0258688 
3 1 3 30.6252 20.1168 7.76897 0.080784 -0.00700236 0.239571 
4 1 1 30.2251 20.726 8.31687 -0.0307895 -0.0906164 -0.103818 
5 1 3 30.8822 19.5078 7.10846 -0.125294 0.0646444 0.196815 
6 1 1 30.3231 19.7141 8.56771 -0.0247115 -0.0649095 -0.059862 
7 1 3 29.808 20.2813 9.17515 -0.106523 -0.0725071 -0.122739 
8 1 1 30.5683 21.1923 6.53786 0.00335414 -0.0439603 -0.0309273 
9 1 3 30.1162 21.8926 7.0539 0.00869272 0.00735206 0.0553358 
10 1 1 29.9751 21.6332 7.94611 -0.0576377 -0.0252895 0.0166965 
11 1 3 29.7118 21.2688 8.76486 0.0212235 0.028232 0.0686847 
12 1 1 29.2427 21.0338 9.46323 -0.0176546 0.0348122 -0.0826931 
13 1 3 30.8443 20.4167 6.00603 -0.0432511 -0.0968707 -0.180939 
14 1 1 30.9446 19.8138 6.43511 0.142389 0.0511077 0.0504573 
15 1 3 30.9824 19.0791 6.31232 0.0331934 0.0582079 -0.0169214 
16 1 1 30.6551 19.132 7.91547 -0.0805732 -0.0877227 0.00962268 
17 1 3 30.8393 18.566 7.13512 0.0473655 0.0253783 0.0345536 
18 1 1 29.1642 20.3533 9.81862 0.0409535 -0.0940748 0.166176 
19 1 3 29.3771 19.5785 9.78445 0.0721677 0.0730485 0.045389 
20 1 1 29.8762 19.2269 9.26921 -0.0407032 -0.0950454 -0.134751 
21 1 3 30.259 18.7062 8.67255 -0.0825085 -0.101291 0.114652 
22 1 1 30.7406 20.5362 5.27621 -0.0391542 0.0936132 -0.0660295 
23 1 3 30.4931 21.3711 5.75507 -0.100153 -0.0647462 0.0120642 
24 1 1 30.0968 22.0798 6.18787 0.133528 -0.0870989 0.0274125 
25 1 3 29.641 22.6119 6.59463 0.114306 -0.0932821 0.0702933 
26 1 1 29.5057 22.4914 7.53373 -0.0178512 -0.124095 -0.100183 
27 1 3 29.2908 22.209 8.40546 0.0571205 -0.0813509 0.14677 
28 1 1 28.5909 20.8319 10.08 -0.176703 -0.0628577 -0.148666 
29 1 3 28.9396 21.9148 9.13662 -0.00928055 -0.0648899 0.0553484 
30 1 1 28.4417 21.5971 9.78077 -0.0958143 -0.0389336 -0.085352 
31 1 3 30.9337 19.5965 5.47924 0.116429 0.200573 0.135589 
32 1 1 30.9362 18.6432 5.70797 -0.0499568 -0.15767 0.0808169 
33 1 3 30.8606 18.1401 6.37229 -0.0320858 0.0175407 0.0121603 
34 1 1 30.5111 18.0812 7.92024 -0.013903 0.121792 -0.133882 
35 1 3 30.6379 17.6367 7.03705 -0.0619236 0.0471376 0.033682 
36 1 1 28.711 19.9837 10.2487 -0.063765 -0.0731825 0.0347546 
37 1 3 28.7442 19.1216 10.2953 -0.0451967 0.142601 -0.0229955 
38 1 1 28.0058 20.4086 10.5431 -0.110513 -0.177174 -0.115904 
39 1 3 29.2866 18.6391 9.83557 0.104648 0.0788952 0.114472 
40 1 1 29.673 18.2125 9.34808 -0.200958 0.0144345 -0.0716842 
41 1 3 30.0088 17.6399 8.63702 0.000348515 -0.100711 0.00904168 
42 1 1 30.6939 20.1 4.67289 -0.00775684 -0.00964163 0.0603861 
43 1 3 30.3677 20.935 4.41519 -0.0509438 -0.11227 -0.0153249 
44 1 1 30.2662 21.5256 4.92174 -0.021871 0.0918313 -0.0138269 
45 1 3 30.072 22.0338 5.43892 0.0579988 0.0214109 -0.0998707 
46 1 1 29.6168 22.629 5.59379 0.0482485 -0.107901 0.142017 
47 1 3 29.0794 23.1561 5.93128 -0.0558504 0.105234 0.0135953 
48 1 1 28.9866 23.1443 6.96007 0.0587244 0.10556 -0.114958 
49 1 3 28.7608 22.9655 7.95845 -0.0212483 0.105579 -0.0995644 
50 1 1 28.455 22.6898 8.75822 -0.098266 0.116443 -0.0290708 
51 1 3 27.8513 21.2474 10.302 -0.0141714 -0.00938224 0.0111231 
52 1 1 28.0645 22.3339 9.44858 0.0131365 -0.0333955 -0.0505478 
53 1 3 27.7869 21.8673 9.97203 -0.0608693 0.153584 -0.0130721 
54 1 1 30.733 19.3644 4.54859 0.0215496 -0.0216672 0.109353 
55 1 3 30.3401 19.7719 3.72214 0.170257 -0.0186768 -0.169774 
56 1 1 30.8327 18.7615 4.97764 -0.0189144 0.0553099 -0.0990698 
57 1 3 30.7762 17.9692 5.42979 0.0377684 -0.0645301 -0.0371736 
58 1 1 30.5217 18.4575 4.16112 0.0132603 -0.0729796 0.0493134 
59 1 3 30.5943 17.2879 6.11488 -0.024859 0.0991722 -0.102895 
60 1 1 30.2185 17.1331 7.77057 -0.0642947 0.324065 -0.127296 
61 1 3 30.2996 16.7829 6.77132 0.0600876 0.0284128 -0.0691877 
62 1 1 28.7161 18.3807 10.2287 -0.0349426 -0.0977422 -0.0293264 
63 1 3 28.0771 19.5385 10.6566 -0.0287261 -0.0686247 -0.130622 
64 1 1 28.0601 18.6499 10.639 0.110279 0.126307 -0.194289 
65 1 3 27.2333 20.8877 10.6731 0.0405097 -0.1491 0.00387333 
66 1 1 27.3417 19.9714 10.8797 0.107344 -0.128119 0.0138187 
67 1 3 28.9574 17.8383 9.89963 -0.0183135 0.0824845 0.10205 
68 1 1 29.3511 17.2592 9.25654 0.320741 -0.226875 -0.0655272 
69 1 3 29.6661 16.7475 8.42971 0.0204187 0.263734 -0.084258 
70 1 1 30.274 20.5689 3.92206 0.0314345 0.10343 0.1179 
71 1 3 29.9602 21.3884 3.98795 -0.112631 0.0608721 0.0292879 
72 1 1 29.6152 22.2995 4.56866 0.0309717 -0.0234478 0.0142919 
73 1 3 29.0333 23.0164 4.94375 -0.0323074 -0.0324452 -0.0103108 
74 1 1 28.4753 23.5097 5.40715 0.0930407 0.0250486 0.00440602 
75 1 3 28.3806 23.6167 6.36376 0.106014 0.136319 -0.0431179 
76 1 1 28.1885 23.5433 7.38137 0.119081 0.124862 -0.0346135 
77 1 3 27.9101 23.2956 8.3147 -0.0487335 -0.00670009 0.0177537 
78 1 1 27.5562 22.9926 9.02066 -0.218958 0.0328551 0.0594828 
79 1 3 27.1262 21.7123 10.3117 0.0418341 0.164368 -0.024902 
80 1 1 27.0943 22.5171 9.72666 0.0559074 -0.0748264 -0.200393 
81 1 3 26.425 21.3094 10.6496 0.112249 0.0212234 0.113169 
82 1 1 29.8097 20.1594 3.03803 0.137929 0.0813682 -0.12808 
83 1 3 30.2874 18.9322 3.5876 0.0136102 -0.0394114 0.0892475 
84 1 1 29.9698 19.4274 3.10723 -0.0303963 -0.24338 -0.135666 
85 1 3 30.5448 17.9436 4.51808 -0.00352489 -0.0105472 -0.127692 
86 1 1 30.426 17.1605 5.12047 -0.00261864 0.0840397 -0.0993792 
87 1 3 30.1821 17.9583 3.71784 -0.0822721 -0.0334734 0.00546446 
88 1 1 30.1485 16.4784 5.80521 0.00102208 -0.129642 -0.0752763 
89 1 3 29.7925 16.2827 7.48046 -0.00450295 -0.180779 -0.104566 
90 1 1 29.7713 15.9762 6.41312 0.0818715 -0.0937923 0.11764 
91 1 3 28.1384 17.6386 10.3487 -0.147145 -0.00576355 -0.0259961 
92 1 1 27.3817 19.0221 10.922 -0.176339 0.0965591 0.116677 
93 1 3 27.3656 18.0756 10.7908 -0.00738486 -0.117273 0.0579494 
94 1 1 26.5331 20.3857 10.9581 -0.191987 0.0510425 0.0165323 
95 1 3 26.6209 19.4177 11.08 -0.0645707 -0.198309 0.0715411 
96 1 1 28.5637 16.9547 9.75602 0.202416 -0.0144869 0.0584121 
97 1 3 28.9672 16.4282 9.00171 0.0179676 0.00875141 -0.303337 
98 1 1 29.1793 15.8877 8.03163 -0.0260486 0.170869 -0.00569597 
99 1 3 29.6878 20.9859 3.25638 -0.127342 -0.152392 -0.0777771 
100 1 1 29.2859 21.9147 3.4953 -0.0131543 0.0180188 0.0168848 
101 1 3 28.8234 22.6984 3.90441 -0.0369173 0.120618 0.176577 
102 1 1 28.2555 23.3314 4.37945 -0.139069 0.112978 -0.0270939 
103 1 3 27.8748 23.8537 5.82141 0.029458 0.0597861 -0.172645 
104 1 1 27.7658 23.7914 5.09751 0.129242 0.043329 -0.10589 
105 1 3 27.4466 23.9829 6.68919 -0.122485 -0.0971507 0.0797118 
106 1 1 27.2995 23.7598 7.79602 -0.0466587 0.0026348 -0.0204165 
107 1 3 26.9843 23.4681 8.58722 0.0795878 0.128759 0.114781 
108 1 1 26.7402 23.145 9.14447 -0.143412 -0.0238936 -0.0125314 
109 1 3 25.6825 20.8111 10.9253 0.0234639 0.122273 0.105191 
110 1 1 26.3009 22.1535 10.1684 -0.0685496 -0.00659027 -0.0827469 
111 1 3 26.1634 22.8858 9.53144 0.0642903 -0.123599 0.0309774 
112 1 1 25.5348 21.6838 10.5368 0.022309 0.034938 0.0814039 
113 1 3 29.4676 19.4588 2.54386 -0.111035 -0.159807 -0.104352 
114 1 1 29.2707 20.434 2.55171 0.0857992 -0.00949872 -0.0721272 
115 1 3 29.6799 18.4599 2.84292 -0.0383854 0.0697105 0.0505195 
116 1 1 29.0103 18.7114 2.17842 0.019532 -0.14753 0.0384557 
117 1 3 30.0819 17.175 4.12377 -0.109265 -0.0679718 -0.164909 
118 1 1 29.8711 16.3916 4.76869 -0.0820799 -0.029912 -0.035482 
119 1 3 29.5944 17.3375 3.22709 -0.216269 0.0253949 0.0173629 
120 1 1 29.527 15.7573 5.49175 -0.250856 -0.0724495 -0.0923737 
121 1 3 29.2246 15.5396 7.07203 -0.10692 0.12997 0.0521635 
122 1 1 29.1465 15.3572 6.03676 0.0580456 0.0225664 0.029954 
123 1 3 27.6779 16.7379 10.1156 -0.141753 0.0143315 0.0780259 
124 1 1 27.3303 17.2913 10.5325 -0.215779 -0.00473304 -0.0421129 
125 1 3 26.6845 18.4415 11.0131 0.0669159 -0.0861921 -0.167784 
126 1 1 26.7201 17.4963 10.7558 -0.0933892 0.0176906 -0.100721 
127 1 3 25.7826 19.903 11.1379 0.0906517 0.0537422 0.054156 
128 1 1 25.8038 18.9827 11.1872 -0.00512756 0.00210593 0.149478 
129 1 3 24.9843 20.2998 11.1523 -0.0217835 -0.0212706 -0.140932 
130 1 1 28.5997 15.2301 7.59927 -0.071498 -0.0220839 0.26725 
131 1 3 28.1129 16.217 9.5019 -0.133719 0.0595918 -0.0723041 
132 1 1 28.3331 15.5072 8.49938 0.0854446 0.0846018 -0.0877114 
133 1 3 28.9599 21.3381 2.70063 0.0697383 0.0449598 0.0799919 
134 1 1 28.5852 22.2155 3.06817 -0.0384873 0.118163 -0.19062 
135 1 3 27.4344 23.7006 4.41017 0.0897681 -0.0358138 0.0744093 
136 1 1 28.1238 22.8831 3.45888 0.0469473 -0.0650303 0.10417 
137 1 3 27.5156 23.3543 3.74089 -0.0218196 -0.0432161 -0.0317177 
138 1 1 27.14 24.0801 5.69629 -0.0929141 0.0691641 -0.0985093 
139 1 3 26.9795 23.9603 4.83519 0.0513953 -0.00258943 -0.0571273 
140 1 1 26.4859 24.2045 6.33264 -0.077609 0.0541583 0.00669617 
141 1 3 26.5544 24.0512 7.3344 0.0975176 0.0500188 0.1541 
142 1 1 26.5746 23.7984 8.07566 -0.0356653 0.00930362 -0.0414087 
143 1 3 26.0198 23.4782 8.76313 0.0307656 -0.0652204 0.00440428 
144 1 1 24.8337 21.2044 10.8513 -0.0273239 0.00394626 -0.105859 
145 1 3 25.5238 22.483 9.96104 -0.0949389 -0.0254424 -0.00946238 
146 1 1 25.4951 22.999 9.43627 0.130684 0.04154 -0.125214 
147 1 3 24.704 22.0316 10.3803 -0.188166 -0.0319113 -0.0526971 
148 1 1 28.8405 19.662 2.04291 0.0452498 -0.0070213 -0.0341561 
149 1 3 28.5231 20.6592 2.05985 0.0349854 0.11757 -0.0959757 
150 1 1 29.0149 17.6401 2.47972 0.052356 0.0343297 -0.0505943 
151 1 3 28.3257 19.057 1.7115 0.0868098 -0.0264757 -0.131986 
152 1 1 28.3182 18.0112 1.87667 -0.104037 0.110311 0.148705 
153 1 3 29.4619 16.4861 3.80452 -0.0439383 -0.00626737 -0.0916326 
154 1 1 29.1949 15.7613 4.49404 0.00733653 -0.0391679 -0.0334779 
155 1 3 28.9775 16.7547 2.97683 -0.0340227 -0.0566105 0.0661762 
156 1 1 28.7781 15.1783 5.23878 0.0306413 -0.139066 -0.0290751 
157 1 3 28.5779 14.9901 6.67516 0.0450046 -0.0114001 0.136802 
158 1 1 28.5276 14.9323 5.87675 -0.0753937 0.0311137 -0.0194962 
159 1 3 27.3466 16.1553 9.82483 0.138979 -0.126481 -0.0221052 
160 1 1 26.727 16.6184 10.3229 0.096555 0.198377 0.201351 
161 1 3 25.9856 17.1294 10.7223 -0.231815 0.154105 0.194076 
162 1 1 25.8081 17.9493 11.0383 0.0454266 0.0993705 -0.0234218 
163 1 3 25.0083 19.4269 11.2844 -0.0252419 -0.0862882 -0.0312812 
164 1 1 25.102 18.6751 11.263 0.10274 -0.00984718 -0.160856 
165 1 3 24.1419 20.636 11.1477 0.190521 0.132126 0.125291 
166 1 1 24.4059 19.8901 11.3042 0.0690564 -0.0984314 -0.187964 
167 1 3 27.944 14.9628 7.84499 0.0574955 -0.0910502 -0.0511124 
168 1 1 28.0095 14.7643 7.10367 0.078389 -0.0525652 -0.0205661 
169 1 3 27.4218 15.5963 9.24319 -0.0783276 -0.0117457 0.123395 
170 1 1 27.3913 15.0451 8.47312 0.0981196 -0.0740013 0.296043 
171 1 3 28.1173 21.6086 2.27736 0.00802654 0.00381431 0.112344 
172 1 1 27.6988 22.3656 2.62435 -0.18882 0.0328531 -0.032535 
173 1 3 26.8203 23.7224 4.08768 0.272318 0.00732183 -0.0331757 
174 1 1 27.1789 22.9262 2.97093 -0.0626097 -0.0503634 -0.0125762 
175 1 3 26.7917 23.3877 3.46056 -0.071662 0.127457 0.00183343 
176 1 1 26.1747 23.9497 4.47706 -0.0912515 0.132786 0.0122294 
177 1 3 26.3083 24.1675 5.38228 -0.038747 -0.187175 -0.0125886 
178 1 1 25.6038 24.2165 5.98683 -0.0165842 0.0726276 -0.0102999 
179 1 3 25.7344 24.1577 6.95624 -0.0575336 -0.181098 0.0123343 
180 1 1 25.8742 23.9074 7.89389 -0.00737655 -0.0593913 0.0979452 
181 1 3 25.1844 23.7242 8.30029 0.137233 -0.00369188 -0.0338218 
182 1 1 25.0309 23.4046 8.89309 -0.253883 -0.0445067 -0.0295422 
183 1 3 23.9224 21.5464 10.7588 -0.0627469 0.0193737 0.11996 
184 1 1 23.3998 20.8668 11.1394 0.117874 0.0677267 0.070016 
185 1 3 24.6333 22.8187 9.68204 0.0627265 -0.0678394 -0.0447963 
186 1 1 23.9744 22.2676 10.2505 -0.019397 0.153523 -0.174248 
187 1 3 28.0316 19.9699 1.62327 0.0457762 -0.0692171 0.0187866 
188 1 1 27.6456 20.9217 1.72083 -0.0222151 -0.0331903 -0.216542 
189 1 3 28.3894 17.0569 2.31911 -0.0277473 -0.000670112 -0.144603 
190 1 1 27.7171 17.225 1.88719 0.21607 -0.107321 -0.113057 
191 1 3 27.6393 19.3369 1.40912 0.0495619 -0.0007462 -0.0913373 
192 1 1 27.6713 18.629 1.45939 0.0138338 0.0272996 0.077406 
193 1 3 27.4837 17.8595 1.55896 -0.0353591 -0.0197918 -0.10266 
194 1 1 28.7079 15.9025 3.57374 -0.0975658 -0.172846 0.0384709 
195 1 3 28.3733 15.2489 4.27029 -0.00805832 0.0718436 -0.0857255 
196 1 1 28.1774 16.1553 2.85039 0.0146996 -0.0531886 -0.147411 
197 1 3 27.924 14.7222 5.16609 -0.0367754 0.106166 -0.174001 
198 1 1 27.8697 14.5998 6.18206 -0.103769 0.147749 0.0894153 
199 1 3 26.7074 15.8404 9.72578 -0.225195 0.0109495 0.103384 
200 1 1 26.0817 15.9758 9.97068 0.134494 -0.0615198 -0.032445 
201 1 3 25.7364 16.5455 10.4518 -0.0314712 -0.043326 0.00787437 
202 1 1 25.2173 17.1453 10.8553 -0.0148159 -0.0988411 0.00898596 
203 1 3 24.6594 17.9227 11.203 0.221578 -0.00731787 -0.0761375 
204 1 1 24.1408 18.908 11.4062 -0.0290263 0.0641448 -0.00847286 
205 1 3 23.445 19.8943 11.4169 0.169106 0.0870461 0.0879578 
206 1 1 27.2863 14.6437 7.63118 0.00711314 0.0712108 -0.119291 
207 1 3 27.174 14.4122 6.73146 0.11361 -0.0514297 -0.0148303 
208 1 1 26.6596 15.1907 8.99292 -0.0599979 0.0110029 -0.0871235 
209 1 3 26.5848 14.6984 8.14944 -0.092808 0.0122661 0.145217 
210 1 1 27.1951 21.787 1.99925 0.0746181 0.0121666 0.00341959 
211 1 3 26.7181 22.3998 2.32478 0.00308637 0.137751 -0.0702135 
212 1 1 26.1013 23.5771 3.65222 -0.0243475 0.0159951 -0.190443 
213 1 3 26.1375 22.9981 2.83642 0.0681249 -0.00526689 0.125636 
214 1 1 25.3895 23.7648 4.10104 -0.156322 0.0027167 0.109474 
215 1 3 25.4868 24.0837 5.02165 -0.023237 -0.0668944 -0.0972862 
216 1 1 22.6857 20.6154 11.3085 0.169606 0.0496839 -0.0792009 
217 1 3 22.8857 21.4593 10.9001 0.0358776 -0.0591472 0.164214 
218 1 1 24.7446 24.1078 5.54826 -0.0953648 -0.0586805 -0.0646477 
219 1 3 24.8064 24.155 6.46674 0.149953 -0.0869779 -0.150567 
220 1 1 24.9002 24.0035 7.4957 -0.0738881 -0.150112 0.025822 
221 1 3 24.4074 23.6999 8.32876 -0.315792 0.234532 0.138669 
222 1 1 24.041 23.3331 9.0215 0.0511383 -0.0632914 0.0287411 
223 1 3 23.2414 22.1498 10.3985 -0.0324089 -0.017947 0.167208 
224 1 1 23.54 22.7937 9.76304 -0.166064 -0.127241 0.0697837 
225 1 3 26.6728 21.1578 1.56141 -0.140363 0.214719 0.0609587 
226 1 1 27.0298 20.1071 1.31438 0.175866 -0.0961706 0.112466 
227 1 3 27.5398 16.4111 2.30256 0.155088 0.0149959 0.0692667 
228 1 1 27.065 16.8115 1.88752 -0.0941109 0.181322 0.106393 
229 1 3 26.9394 17.4254 1.56407 0.017653 -0.0118041 -0.000704813 
230 1 1 26.9103 19.0573 1.21607 0.000823051 0.0972137 -0.0153774 
231 1 3 26.9284 18.2025 1.32641 0.0218428 0.159733 0.00985057 
232 1 1 27.8494 15.448 3.441 0.0769576 -0.00902009 0.197225 
233 1 3 27.4612 14.9075 4.09479 -0.0689126 -0.0788114 -0.106004 
234 1 1 27.2847 15.6825 2.85315 -0.0136064 0.17287 -0.0285122 
235 1 3 26.9128 14.5224 4.72343 -0.0566597 -0.169138 0.0151482 
236 1 1 27.114 14.3764 5.73527 0.042488 0.0949958 -0.0758966 
237 1 3 25.9779 15.4453 9.46814 -0.0832383 0.0598963 0.110958 
238 1 1 25.1906 15.7757 9.97152 -0.00301547 0.0807187 -0.0544614 
239 1 3 24.748 16.4709 10.5812 0.0340836 0.158411 0.110772 
240 1 1 24.2157 17.2013 11.0408 0.0334925 -0.125066 -0.00808786 
241 1 3 23.6629 17.9909 11.3649 -0.0401321 0.082311 -0.0599596 
242 1 1 23.072 18.8562 11.5463 -0.0629073 0.0399574 0.0510198 
243 1 3 22.4424 19.7069 11.5672 -0.033351 -0.0341011 0.0213793 
244 1 1 26.4883 14.3804 7.22703 0.0453996 0.138835 0.0131825 
245 1 3 26.3713 14.2487 6.26321 -0.0372683 0.0259214 0.0900623 
246 1 1 25.7976 14.8643 8.69289 -0.119261 -0.104476 -0.0450753 
247 1 3 25.7442 14.4633 7.81457 0.308647 0.0145515 -0.0202939 
248 1 1 26.2258 21.8665 1.88096 -0.131343 0.0424312 -0.130202 
249 1 3 25.89 22.3602 2.22426 -0.0607964 -0.0542054 0.164809 
250 1 1 25.3154 23.2727 3.25607 0.0688328 0.132677 1.53445e-05 
251 1 3 25.2671 22.6249 2.52173 -0.142481 -0.0658813 0.158694 
252 1 1 24.5213 23.4785 3.77401 0.160626 -0.0282667 -0.0410998 
253 1 3 24.6364 23.8839 4.64518 0.0961876 0.113637 0.149635 
254 1 1 21.7406 20.4947 11.4486 0.00277889 0.0427628 0.0827521 
255 1 3 22.0138 21.3129 11.0598 -0.0663931 -0.101656 0.0637041 
256 1 1 22.2871 22.086 10.5188 -0.0306897 0.209566 0.149065 
257 1 3 23.9373 23.9637 5.19683 0.0545872 0.136139 0.0439459 
258 1 1 23.9845 24.0926 6.06888 0.239118 0.0239746 0.0170659 
259 1 3 24.1231 24.0867 6.81359 -0.0101876 -0.0189077 0.0538877 
260 1 1 23.7465 23.9333 7.58803 -0.100404 0.164955 0.0464335 
261 1 3 23.3867 23.6813 8.32839 0.0225008 -0.00302689 -0.0103607 
262 1 1 23.0518 23.2613 9.15053 0.00709834 -0.00381633 0.173735 
263 1 3 22.6362 22.7405 9.86704 -0.0633978 0.135701 0.138231 
264 1 1 25.9094 21.2845 1.56552 0.0133198 0.0930548 -0.0581846 
265 1 3 26.0247 20.5524 1.30248 0.0381707 -0.0157112 0.0329815 
266 1 1 26.1272 19.5637 1.1389 0.122953 0.0473916 0.0384233 
267 1 3 26.5656 16.0525 2.31187 0.0123756 -0.032786 -0.138722 
268 1 1 26.3096 16.8596 1.73751 0.150117 0.0949684 -0.0863119 
269 1 3 26.2298 17.6792 1.38144 -0.138376 -0.0410068 0.0949613 
270 1 1 26.1616 18.5951 1.17069 -0.21902 -0.147372 -0.0374758 
271 1 3 26.9212 15.1389 3.41215 0.0438477 -0.0779454 0.0174483 
272 1 1 26.709 14.7613 4.00775 -0.0790796 0.20204 0.00595246 
273 1 3 26.4936 15.4115 2.94207 -0.046893 -0.0022151 0.0112298 
274 1 1 26.0996 14.5572 4.35635 -0.0278642 0.0694434 -0.103079 
275 1 3 26.2395 14.3085 5.29334 0.136626 0.137723 -0.166597 
276 1 1 25.0631 15.0707 9.1986 0.125226 0.0436871 -0.0286445 
277 1 3 24.4036 15.2416 9.57254 -0.0338738 -0.0241793 -0.175208 
278 1 1 24.1116 15.7544 10.1652 -0.0557189 -0.0119861 0.091447 
279 1 3 23.7597 16.3978 10.7104 0.0545331 0.029933 -0.0315395 
280 1 1 23.2598 17.1326 11.1672 0.0149008 -0.200164 0.088292 
281 1 3 22.7385 17.9229 11.4863 -0.133587 -0.0677797 -0.171637 
282 1 1 22.1388 18.7784 11.6682 -0.155553 -0.160133 0.225275 
283 1 3 21.4526 19.619 11.6971 -0.06139 0.216149 0.107972 
284 1 1 25.6462 14.2404 6.91003 -0.0231487 0.0135639 -0.0712371 
285 1 3 25.4784 14.188 6.0048 -0.0268283 -0.128266 0.0618396 
286 1 1 24.9982 14.5879 8.37132 -0.0211841 0.0797216 -0.0570554 
287 1 3 24.9456 14.274 7.4597 -0.141573 0.132068 0.0823432 
288 1 1 25.2466 21.8458 1.92642 -0.0567178 0.0318102 -0.106965 
289 1 3 24.5786 22.9149 2.96665 0.0153145 0.151307 -0.0681777 
290 1 1 24.6265 22.3974 2.44359 0.0407537 -0.17964 -0.0558954 
291 1 3 20.7609 20.4136 11.5797 0.0334041 0.0930182 -0.136145 
292 1 1 23.7208 23.1594 3.4702 0.0604113 -0.00903767 0.0688964 
293 1 3 23.7992 23.6434 4.29727 -0.0276282 -0.0310852 -0.100422 
294 1 1 21.0516 21.2244 11.1951 -0.0495605 -0.050296 -0.0532699 
295 1 3 21.356 21.9952 10.6575 0.123715 0.0381532 -0.00376966 
296 1 1 21.6959 22.6386 10.0273 -0.0183546 -0.197748 0.209811 
297 1 3 23.0952 23.7921 4.90797 -0.0782803 -0.119093 -0.0843445 
298 1 1 23.3638 23.9933 5.64043 -0.142986 -0.0804759 -0.078747 
299 1 3 23.1426 24.0349 6.63527 0.224622 -0.105195 0.0794783 
300 1 1 22.7353 23.8937 7.57501 0.112117 0.116047 0.256674 
301 1 3 22.4304 23.6133 8.45152 -0.00291061 0.175326 -0.0245388 
302 1 1 22.0632 23.1899 9.27943 -0.0427156 0.112305 -0.195636 
303 1 3 25.3523 19.0474 1.17046 0.0333733 0.0413364 0.00163764 
304 1 1 25.2531 20.9687 1.4931 -0.0591352 0.0614301 -0.0246827 
305 1 3 25.2897 20.0231 1.23768 -0.014826 0.0143736 0.0535586 
306 1 1 25.8111 15.5783 2.71985 0.216381 -0.0438672 -0.138432 
307 1 3 25.674 16.3105 2.08345 -0.128346 -0.0312772 0.129965 
308 1 1 25.548 17.1539 1.60216 0.153617 -0.0149669 -0.11494 
309 1 3 25.4394 18.0784 1.29304 -0.170473 0.073429 -0.155861 
310 1 1 25.955 14.9867 3.48727 -0.0527731 0.144531 -0.0816837 
311 1 3 25.3099 14.6321 4.14377 0.12299 -0.0199781 -0.0602542 
312 1 1 25.2821 14.3307 4.98881 -0.0102395 0.0732452 -0.00525098 
313 1 3 24.1789 14.7335 8.88596 0.0572205 0.0943608 0.0407295 
314 1 1 23.6541 15.1338 9.60475 0.111588 -0.0978978 0.0260008 
315 1 3 23.2105 15.7024 10.2951 -0.118492 0.0595297 0.0734023 
316 1 1 22.771 16.3243 10.8407 -0.0211117 -0.0920532 0.100971 
317 1 3 22.2719 17.0601 11.2971 -0.0324263 0.145034 0.0253 
318 1 1 21.7488 17.8496 11.6153 0.0527231 0.0100444 -0.128897 
319 1 3 21.118 18.7282 11.8007 -0.14403 -0.0367574 -0.131902 
320 1 1 20.4568 19.5489 11.8262 0.0170053 0.259855 -0.123814 
321 1 3 24.7856 14.1384 6.60239 0.0223142 0.0164416 0.0207049 
322 1 1 24.7258 14.1517 5.84754 0.1258 -0.168767 -0.218577 
323 1 3 24.1895 14.329 7.95722 -0.012064 -0.165016 0.11241 
324 1 1 24.2878 14.1542 7.17687 0.0863404 0.155885 0.111848 
325 1 3 24.5074 21.2278 1.72064 0.0280298 -0.0779025 0.0200694 
326 1 1 24.2574 21.7749 2.05723 0.0917412 0.0903884 0.0862598 
327 1 3 23.7443 22.4648 2.67545 0.0867646 0.220272 -0.055798 
328 1 1 23.0202 22.8886 3.27349 0.108117 0.075666 -0.0289746 
329 1 3 19.7876 20.3257 11.7117 0.161868 0.0546824 0.0927472 
330 1 1 20.0661 21.1497 11.3256 -0.08241 -0.118624 0.122558 
331 1 3 22.9077 23.3714 4.00434 0.094958 0.00400427 -0.0351645 
332 1 1 20.3674 21.9219 10.787 0.0173004 -0.261807 -0.059798 
333 1 3 20.7061 22.5657 10.1571 0.00793492 0.116965 0.0441527 
334 1 1 21.0739 23.1166 9.40899 -0.00788372 0.0775608 0.161009 
335 1 3 22.3573 23.6373 4.71757 0.221861 0.0478084 -0.0324025 
336 1 1 22.4015 23.9115 5.68949 -0.119333 -0.132382 0.0542055 
337 1 3 22.0712 23.9572 6.74781 -0.0330005 -0.0707437 0.131057 
338 1 1 21.811 23.8249 7.69713 -0.164156 -0.0181323 0.105868 
339 1 3 21.4412 23.5406 8.5813 -0.0116459 -0.0539001 0.081849 
340 1 1 25.2121 15.3719 2.98234 -0.0602117 0.0779896 0.0467729 
341 1 3 24.606 18.4437 1.31884 -0.134174 0.0695724 0.0672968 
342 1 1 24.482 19.3574 1.28265 -0.0147028 0.138203 -0.16286 
343 1 3 24.3742 20.3841 1.4454 -0.0501877 0.0757429 -0.082952 
344 1 1 25.0323 15.877 2.47713 0.112909 -0.0518895 0.0314087 
345 1 3 24.7818 16.6591 1.93086 -0.00581921 0.0668277 -0.166712 
346 1 1 24.6958 17.5355 1.53368 -0.0257119 -0.0773797 -0.0346357 
347 1 3 23.8968 17.9352 1.50157 -0.17392 -0.15816 0.141799 
348 1 1 24.9656 14.9143 3.61794 0.00436515 -0.0591223 -0.0554185 
349 1 3 24.5546 14.5441 4.31591 -0.0593389 0.102743 -0.156252 
350 1 1 24.1474 14.2332 5.19596 0.154981 0.142496 0.00559754 
351 1 3 23.5098 14.3798 8.3306 0.095867 -0.0609452 0.101146 
352 1 1 23.1388 14.6505 9.00933 0.0841913 0.0616826 -0.0121976 
353 1 3 22.7008 15.0684 9.73557 0.037335 -0.0540579 0.0619232 
354 1 1 22.2614 15.5959 10.3869 -0.00336361 -0.0393097 -0.109265 
355 1 3 21.7828 16.2525 10.9697 0.0847372 0.12697 -0.0343668 
356 1 1 21.2824 16.9871 11.425 0.0758316 0.00491533 -0.0229719 
357 1 3 20.76 17.7773 11.7441 -0.0494392 0.128039 0.0421227 
358 1 1 20.1304 18.6526 11.9288 0.0649316 -0.126222 0.0595294 
359 1 3 19.4461 19.4685 11.9584 0.151938 -0.0612405 -0.14927 
360 1 1 23.8262 14.0651 6.26904 0.0126488 -0.00967428 -0.230937 
361 1 3 23.3437 14.0973 7.37484 -0.0401506 0.0144063 -0.0753992 
362 1 1 23.7425 21.0983 1.78781 0.000691171 0.070441 -0.206783 
363 1 3 23.2671 21.702 2.18578 -0.0620364 0.0554417 0.0323053 
364 1 1 22.6615 22.3268 2.76559 0.0462142 -0.0488949 0.00328504 
365 1 3 22.2792 22.8859 3.43407 0.0958842 -0.00773657 0.150958 
366 1 1 18.7763 20.2783 11.8337 0.063323 0.0498015 -0.0438324 
367 1 3 19.0779 21.0646 11.4601 0.148195 -0.0183328 -0.00607315 
368 1 1 19.3765 21.8454 10.9196 0.0146424 0.0545838 -0.0279042 
369 1 3 21.8696 23.3029 4.14975 0.0513787 -0.00064556 -0.037896 
370 1 1 19.7165 22.4932 10.2858 0.216765 -0.174102 -0.157309 
371 1 3 20.084 23.0434 9.53795 0.0812336 -0.0225932 -0.100224 
372 1 1 20.4513 23.4678 8.71064 -0.0774959 0.155155 0.0683222 
373 1 3 21.6381 23.6579 5.0107 -0.101077 -0.0137007 -0.103037 
374 1 1 21.4021 23.8563 5.93405 0.0512744 -0.0797582 0.0407645 
375 1 3 21.1383 23.8893 6.87897 -0.0376264 -0.0645365 -0.012255 
376 1 1 20.8216 23.7526 7.82669 0.00353243 0.224715 -0.0229757 
377 1 3 24.3 15.4227 2.96754 -0.023347 0.131725 0.0375875 
378 1 1 23.7609 18.8004 1.38384 0.0813054 -0.0493163 0.0857782 
379 1 3 23.7475 19.5571 1.3943 -0.0138836 -0.0247777 0.00406811 
380 1 1 23.2333 20.2411 1.58096 0.0861719 0.0868649 0.0451931 
381 1 3 24.0777 16.198 2.28993 -0.157703 0.186728 0.159295 
382 1 1 23.9613 17.024 1.81575 0.015661 0.0585393 -0.0227878 
383 1 3 23.1416 17.4837 1.71484 0.0164712 0.0138276 0.202202 
384 1 1 23.2462 18.2558 1.51 0.00765408 0.0565342 -0.00036069 
385 1 3 23.9759 14.8419 3.74662 -0.0590046 0.0133249 0.0392506 
386 1 1 23.576 14.4161 4.57661 0.0406781 0.00821071 -0.0366551 
387 1 3 23.1768 14.1284 5.46573 -0.0967323 -0.14045 -0.0386517 
388 1 1 22.7505 14.2507 8.23046 -0.0874207 -0.0975815 -0.169034 
389 1 3 22.2471 14.5396 9.04368 -0.0778424 0.0626081 0.0958857 
390 1 1 21.7641 14.9832 9.8363 -0.0094802 -0.0127373 -0.0745143 
391 1 3 21.2721 15.5234 10.5157 -0.0604591 -0.00872611 -0.0794529 
392 1 1 20.7933 16.1795 11.0973 -0.00373396 0.122772 0.220993 
393 1 3 20.2933 16.9141 11.5535 0.153367 -0.0790428 0.134642 
394 1 1 19.7714 17.7039 11.8721 0.0600971 -0.0835343 0.079147 
395 1 3 19.1287 18.5714 12.059 0.170983 0.00962178 0.057221 
396 1 1 18.4675 19.3855 12.0877 -0.281912 -0.18654 -0.146046 
397 1 3 22.7626 13.9845 6.43545 -0.14374 0.0862411 -0.121761 
398 1 1 22.3171 14.0028 7.39392 -0.0146518 -0.0216314 -0.15667 
399 1 3 22.7464 20.8934 1.8626 0.110829 0.0015263 0.00144398 
400 1 1 22.2797 21.629 2.31527 0.137796 -0.0124068 0.0555665 
401 1 3 21.7589 22.2458 2.86942 -0.0671785 -0.044944 -0.0386514 
402 1 1 17.8136 20.1569 11.976 -0.0970352 -0.0912888 -0.00593703 
403 1 3 21.3266 22.8113 3.55003 -0.00940205 -0.0534303 -0.0353229 
404 1 1 18.0741 21.0064 11.5829 0.164828 0.0862421 -0.125588 
405 1 3 18.3823 21.7583 11.0606 -0.157738 0.0517426 0.120463 
406 1 1 18.7293 22.4196 10.4154 -0.138741 0.189815 -0.00342593 
407 1 3 20.9935 23.2842 4.34511 0.00532885 0.0974241 0.0534979 
408 1 1 19.0953 22.9714 9.66663 0.0401118 -0.0355086 -0.114586 
409 1 3 19.4624 23.3949 8.8388 -0.0613525 -0.0335336 -0.0193376 
410 1 1 19.8332 23.6798 7.95542 -0.0259562 0.129512 -0.066571 
411 1 3 20.6927 23.6055 5.1833 0.0391028 0.111125 -0.0435356 
412 1 1 20.4119 23.786 6.07781 0.0308822 0.171249 -0.093772 
413 1 3 20.1165 23.8137 6.98686 0.018963 -0.100192 0.124529 
414 1 1 23.4467 15.8626 2.59588 -0.104391 0.201321 -0.133341 
415 1 3 23.2288 15.2895 3.16692 -0.0129552 -0.162206 0.0799967 
416 1 1 22.8261 19.1874 1.4981 0.0695118 0.128488 0.0227129 
417 1 3 22.2485 20.0266 1.67676 0.0406918 0.0338275 0.0536087 
418 1 1 23.1618 16.5586 2.13048 0.0146726 -0.111663 0.0773386 
419 1 3 22.468 17.1503 1.90679 -0.0122368 0.0659239 0.0525331 
420 1 1 22.2992 18.1118 1.64617 -0.0861073 0.0441299 0.0939856 
421 1 3 22.9866 14.7678 3.87624 0.0381745 0.075428 -0.0169053 
422 1 1 22.6202 14.3447 4.70258 -0.156654 -0.139993 0.116045 
423 1 3 22.2534 14.06 5.58657 0.123357 -0.0437516 -0.0179883 
424 1 1 21.7944 14.1633 8.30378 0.0631698 0.0768809 -0.0768905 
425 1 3 21.2819 14.4588 9.15133 0.0434588 -0.0407951 0.00166018 
426 1 1 20.7762 14.9098 9.96445 0.0690366 -0.036692 -0.033391 
427 1 3 20.2819 15.4503 10.6438 -0.0790159 -0.0142138 -0.00554812 
428 1 1 19.8043 16.1071 11.2257 -0.0878833 -0.00927494 -0.023582 
429 1 3 17.5002 19.3053 12.2146 0.186936 0.0542614 -0.0188199 
430 1 1 19.3043 16.8407 11.6818 -0.170649 0.00125017 -0.0728565 
431 1 3 18.7826 17.6312 12.0001 -0.00148116 -0.158127 -0.126306 
432 1 1 18.1488 18.496 12.187 0.0219341 0.0948637 0.0783603 
433 1 3 21.8278 13.9155 6.54583 0.082436 -0.0908287 0.12075 
434 1 1 21.3238 13.9274 7.5071 -0.0626931 0.169042 0.0143203 
435 1 3 21.7907 20.8224 1.98711 -0.0675623 0.0172736 -0.137538 
436 1 1 21.2905 21.557 2.44324 -0.0880081 -0.0362661 -0.0227081 
437 1 3 20.8126 22.2141 3.02496 0.0398301 -0.00874409 -0.0370523 
438 1 1 16.8141 20.0688 12.1106 0.0297781 0.0278506 -0.0162127 
439 1 3 17.0942 20.9166 11.7189 0.00680998 -0.0216219 0.019765 
440 1 1 20.3925 22.7625 3.69482 -0.148826 0.062689 0.111751 
441 1 3 17.3925 21.6946 11.1815 0.0869606 0.0599633 -0.141612 
442 1 1 17.7405 22.3467 10.544 0.154389 -0.100442 0.0897527 
443 1 3 18.1076 22.8975 9.79562 -0.187743 -0.0691946 0.0185171 
444 1 1 20.0301 23.2246 4.4885 0.00739491 0.0867547 0.060884 
445 1 3 18.4739 23.3223 8.96757 0.111187 -0.0684059 0.00186043 
446 1 1 18.8437 23.6071 8.08434 -0.166522 -0.0483835 0.00511375 
447 1 3 19.1299 23.7426 7.11883 0.0323471 0.0192939 0.0510443 
448 1 1 19.7148 23.5367 5.31939 0.0463728 -0.173738 -0.0382933 
449 1 3 19.4171 23.7128 6.20412 0.0498305 0.0534351 0.0401301 
450 1 1 22.6902 15.8719 2.64037 0.0965118 0.024035 -0.0931195 
451 1 3 22.3309 15.2106 3.2973 0.0635345 0.12187 -0.0362916 
452 1 1 21.761 19.0829 1.63597 0.212355 0.134613 0.31187 
453 1 3 21.3236 19.9597 1.79749 -0.0355031 0.032399 0.0321933 
454 1 1 22.1223 16.4942 2.25815 0.0653381 0.111851 -0.0478247 
455 1 3 21.7038 17.2913 1.92984 0.0125378 0.061908 0.0155113 
456 1 1 21.2756 18.1508 1.75961 0.096074 0.0646742 -0.119818 
457 1 3 21.9983 14.6955 4.00349 0.0805614 -0.105109 0.126455 
458 1 1 21.6327 14.2721 4.83182 0.0313351 0.0542084 0.033891 
459 1 3 21.264 13.9869 5.71416 -0.0791133 0.0391768 0.00388861 
460 1 1 20.8133 14.0876 8.42084 -0.111852 -0.161684 0.0494973 
461 1 3 20.2967 14.3849 9.2766 0.0968483 0.0686947 0.0470865 
462 1 1 19.7828 14.832 10.0894 -0.0327143 0.00723119 -0.078146 
463 1 3 19.2939 15.3768 10.7738 -0.0756101 0.0370643 0.164794 
464 1 1 18.8161 16.0326 11.3544 0.114749 0.0316381 0.00988778 
465 1 3 16.5 19.2359 12.3445 0.0196932 0.0094209 -0.0392052 
466 1 1 17.1559 18.428 12.3162 0.146559 -0.104402 -0.241402 
467 1 3 18.3155 16.7676 11.8107 -0.110523 0.101586 0.0958712 
468 1 1 17.7935 17.5579 12.1298 -0.0524612 -0.101344 0.0126772 
469 1 3 20.8109 13.8402 6.70232 -0.0573204 -0.2056 -0.00700911 
470 1 1 20.329 13.8547 7.63907 0.113264 -0.0451718 0.24462 
471 1 3 20.8021 20.7494 2.11553 0.0237472 0.0311174 0.0604072 
472 1 1 20.3014 21.485 2.57147 -0.0516767 -0.140907 -0.0752546 
473 1 3 19.8245 22.1427 3.15311 0.189267 0.00491113 -0.110702 
474 1 1 15.8236 20.0095 12.2352 -0.0529698 -0.164368 0.00474765 