ITEM: TIMESTEP
100000000
ITEM: NUMBER OF ATOMS
37074
ITEM: BOX BOUNDS pp pp pp
0 62
0 62
0 62
ITEM: ATOMS id mol type x y z vx vy vz 
1 1 3 12.7603 10.0113 42.6717 0.031029 -0.0227269 -0.079727
2 1 1 13.5768 9.87831 42.6154 -0.0858859 0.050258 0.0859463
3 1 1 12.9092 9.2713 42.9643 0.122999 -0.0833563 0.0441375
4 1 1 13.7718 9.02113 43.0879 -0.0782573 0.0403439 -0.160745
5 1 3 12.0736 9.53088 43.0623 -0.0313091 -0.17108 -0.0185443
6 1 1 13.0847 8.51097 43.5278 -0.01542 -0.0583859 -0.0653333
7 1 1 13.9689 8.32507 43.7743 0.0114251 0.0544565 -0.146325
8 1 1 13.1499 10.7155 42.4002 0.0357235 0.0810783 0.136531
9 1 3 14.175 10.6521 42.3943 -0.011023 0.134051 -0.0513821
10 1 1 14.4228 9.78602 42.7583 -0.0371973 0.154011 -0.0198361
11 1 1 14.6921 9.02115 43.2822 -0.095561 -0.0713515 -0.0559936
12 1 1 14.9748 8.54819 43.791 -0.0243741 0.101153 -0.00813544
13 1 3 12.1951 10.8312 42.5796 0.0262979 0.0372755 0.119838
14 1 1 12.0139 10.253 42.7876 0.0267226 0.0985328 0.00459009
15 1 1 11.397 10.1431 43.1412 -0.0819756 -0.0426206 0.0278455
16 1 1 12.2057 8.77514 43.5092 -0.00113404 -0.122915 0.0245868
17 1 3 11.3584 9.2349 43.6333 0.124716 0.0670486 -0.0439957
18 1 1 14.6187 8.02902 44.2806 0.184319 -0.0932139 -0.0428284
19 1 1 13.9195 7.70137 44.5804 -0.0599434 -0.177728 -0.0367464
20 1 1 13.1868 7.86809 44.2992 -0.0368802 -0.0512646 -0.267542
21 1 3 12.3079 8.10663 44.202 0.0371622 -0.115335 0.120177
22 1 1 12.0836 11.5942 42.4879 -0.0199931 -0.0307732 -0.0717959
23 1 1 13.0257 11.4475 42.2682 -0.00501246 0.0324836 0.167949
24 1 1 14.0328 11.4534 42.2579 -0.0655579 0.0420559 -0.13455
25 1 3 14.8591 11.331 42.3414 0.0495076 0.215909 -0.0111951
26 1 1 15.1955 10.5034 42.6168 0.15481 -0.0438699 -0.116488
27 1 1 15.3713 9.77589 43.0815 -0.0673552 0.089351 0.156839
28 1 1 15.4028 8.13136 44.5893 -0.00603874 -0.00269392 0.129829
29 1 3 15.7712 9.23644 43.611 -0.00589809 0.0316111 -0.0274151
30 1 1 15.9024 8.63873 44.2357 -0.0123292 0.0524774 0.0721664
31 1 1 11.3241 11.0107 42.965 -0.094464 0.0640351 0.083923
32 1 1 10.7142 10.3961 43.4286 -0.037936 -0.0665502 -0.0154467
33 1 3 10.5985 9.70355 43.8312 -0.0384182 0.206314 0.0268124
34 1 1 11.4242 8.55214 44.2765 0.194018 0.00935841 0.202514
35 1 1 10.6104 9.07758 44.3012 0.0574424 -0.0280722 -0.0429122
36 1 1 14.7668 7.72763 44.9161 -0.000905597 -0.040249 -0.0773244
37 1 3 14.0356 7.36379 45.4332 0.0150525 -0.038715 0.102688
38 1 1 15.5454 7.88572 45.406 0.0233827 0.0747755 0.060947
39 1 1 13.1866 7.34026 45.1964 -0.129641 -0.100546 -0.0549909
40 1 1 12.5349 7.56973 45.0474 -0.210905 -0.109307 0.194135
41 1 3 11.6173 7.97586 44.9953 0.0829273 -0.0316829 0.0848999
42 1 1 11.4936 11.9671 42.7331 0.00257095 0.1247 -0.144435
43 1 1 12.1321 12.6011 42.4013 -0.00265401 0.00566307 -0.0843511
44 1 1 12.8787 12.2828 42.2444 -0.100656 0.154882 -0.215573
45 1 3 13.595 12.0948 42.1655 -0.00990464 0.0266092 0.157749
46 1 1 14.3947 12.248 42.2113 -0.178487 -0.0520329 0.0979134
47 1 1 15.1526 12.3268 42.4865 0.0410738 0.0515829 -0.00316967
48 1 1 15.7145 11.4369 42.6223 0.20282 0.0799784 -0.027412
49 1 3 16.1369 10.5543 43.0175 -0.0558545 -0.0635653 0.10285
50 1 1 16.4037 9.92474 43.5827 -0.127983 -0.0723778 -0.219107
51 1 1 16.1478 8.32157 45.0333 0.0194855 -0.181561 -0.16291
52 1 1 16.596 9.30939 44.1805 0.026921 -0.191503 0.191979
53 1 3 16.5057 8.79855 44.666 0.0634912 -0.0601388 0.133551
54 1 1 10.8581 11.7417 43.1293 -0.0163243 0.0409823 0.0129703
55 1 1 11.0016 12.8346 43.0505 -0.040866 0.00945345 0.0278185
56 1 1 10.5048 11.1515 43.4381 -0.0142744 0.103147 -0.0211294
57 1 3 10.0985 10.4765 43.8728 -0.081022 0.0775465 0.0720664
58 1 1 10.0617 11.8375 43.7514 0.139224 -0.0536364 -0.0425953
59 1 1 9.96978 9.79157 44.3733 0.0701879 -0.0166505 0.0242157
60 1 1 10.7106 8.47429 44.9584 0.0536268 0.191802 -0.0333416
61 1 3 9.90829 9.17485 45.015 0.0653005 -0.0200519 0.00681837
62 1 1 13.4026 7.1552 45.8187 -0.0164955 0.0508368 -0.0390358
63 1 1 14.8358 7.51363 45.7259 0.0261688 0.0733253 -0.170986
64 1 1 14.1216 7.20255 46.3157 -0.203889 -0.0378085 -0.0405389
65 1 3 16.3545 8.13574 45.7998 0.19496 0.0747804 0.101702
66 1 1 15.6262 7.67697 46.1187 0.111968 0.140239 -0.0798804
67 1 1 12.7388 7.24593 45.9087 0.0439648 -0.0326195 0.247003
68 1 1 11.8624 7.57174 45.8407 -0.100446 0.0704405 -0.0718832
69 1 3 10.9337 8.02875 45.7336 0.136257 0.0678181 -0.055527
70 1 1 11.7051 12.9037 42.6868 -0.0677583 0.0758253 0.24647
71 1 1 12.4299 13.2318 42.4106 -0.0785938 -0.0588018 0.049088
72 1 1 13.569 13.094 42.3129 -0.0274937 0.107646 0.188808
73 1 3 14.6204 13.127 42.4954 0.179542 -0.13509 0.00460531
74 1 1 15.4684 13.0659 42.7859 -0.0220464 0.0260939 -0.14803
75 1 1 16.0199 12.2936 42.8716 -0.0294837 0.0862345 -0.164338
76 1 1 16.5218 11.4469 43.1599 0.21292 0.0784171 0.000390225
77 1 3 16.9014 10.6762 43.6012 -0.0213991 0.0156225 0.0156918
78 1 1 17.1372 10.0667 44.1841 -0.047125 -0.26186 -0.0400848
79 1 1 16.8715 8.74842 45.3241 -0.0481455 0.0627081 0.149862
80 1 1 17.2716 9.51484 44.9561 0.00575491 0.0377286 -0.0158185
81 1 3 17.0473 8.61697 46.2654 -0.299478 0.0381283 0.0910366
82 1 1 11.2157 13.7577 43.1634 0.0810929 0.0441193 -0.155584
83 1 1 10.3085 12.6321 43.4681 -0.0890924 0.162045 -0.118978
84 1 1 10.5866 13.3625 43.3962 0.117679 -0.07183 -0.193212
85 1 3 9.82818 11.3326 43.9781 -0.0396192 0.0216665 -0.1512
86 1 1 9.45906 10.701 44.54 -0.0444923 0.134387 -0.0955314
87 1 1 9.68489 12.216 44.1231 0.0277504 -0.0428325 -0.0567678
88 1 1 9.34983 9.94079 45.1415 -0.130017 -0.0953957 -0.00683706
89 1 3 10.0737 8.53815 45.7795 -0.103928 -0.0501085 0.0943256
90 1 1 9.44805 9.29482 45.8888 -0.038877 -0.0436669 0.208262
91 1 1 13.2117 7.07606 46.7332 -0.0176192 -0.128339 -0.13117
92 1 1 14.9216 7.36676 46.5988 -0.0612296 -0.0940709 0.0151809
93 1 3 14.1735 7.08405 47.1732 0.00903966 -0.180654 0.0104572
94 1 1 16.4167 7.98859 46.6729 -0.0573843 0.0605381 -0.0506172
95 1 1 15.687 7.54644 47.0803 0.169274 0.142493 0.0540068
96 1 1 12.2777 7.2776 46.7666 -0.028546 0.122843 -0.116004
97 1 3 11.3546 7.62133 46.4642 0.0170121 -0.0150797 -0.064843
98 1 1 10.3737 8.20643 46.5451 -0.0095173 0.0673465 -0.0913821
99 1 1 11.9771 13.788 42.827 -0.0090375 0.0874433 0.157768
100 1 1 13.0058 14.0252 42.7056 0.0752419 0.0836992 0.137491
101 1 3 14.0507 14.0462 42.7223 -0.0768826 -0.00714474 -0.0315386
102 1 1 14.9587 13.9993 42.9636 -0.157903 -0.103384 -0.0430261
103 1 1 16.111 13.0555 43.1546 0.131824 0.0385256 -0.00849607
104 1 1 15.8266 13.6858 43.2765 0.0493601 0.0610143 -0.0284957
105 1 3 16.8445 12.4524 43.543 0.0861705 -0.0274394 0.0733691
106 1 1 17.2941 11.5515 43.814 -0.0389542 0.192993 -0.0106752
107 1 1 17.5231 10.805 44.3423 -0.160719 -0.148843 0.0661102
108 1 1 17.6708 10.3455 44.8249 0.234233 0.0575984 -0.0287976
109 1 3 17.1365 8.48006 47.1444 0.0905757 -0.0317011 -0.124577
110 1 1 17.5354 9.31417 45.9181 -0.014818 0.034467 -0.0860352
111 1 1 17.8819 10.0723 45.4704 0.0590478 0.0483635 -0.00760822
112 1 1 17.7233 9.11618 46.7715 0.0428281 0.0641832 -0.0187213
113 1 3 10.6052 14.0094 43.8215 0.0284885 0.195705 -0.0847128
114 1 1 11.5464 14.3845 43.4388 0.0436207 -0.368071 -0.176423
115 1 1 9.82939 13.2627 44.1952 0.0351992 -0.01106 -0.00517445
116 1 1 10.0501 14.1157 44.5958 -0.0726531 0.0478856 0.0336643
117 1 3 9.22878 11.725 44.6895 0.010527 0.0177056 0.0650691
118 1 1 8.97925 10.8513 45.4295 0.053238 -0.110397 -0.00241755
119 1 1 9.1374 12.6637 44.9027 -0.124275 0.158525 -0.026664
120 1 1 9.03789 10.1121 46.1538 -0.061908 -0.194765 0.0129761
121 1 3 9.64398 8.8299 46.7372 0.122154 -0.168948 0.157792
122 1 1 9.10366 9.67833 46.7949 0.0235857 0.0969537 -0.0512426
123 1 1 12.7434 7.07394 47.5676 0.235621 0.06713 -0.0605473
124 1 1 13.5511 6.97711 47.6083 -0.0775243 0.142125 0.0497678
125 1 3 14.8745 7.19206 47.5642 -0.193546 0.18116 -0.108053
126 1 1 14.0444 6.99426 48.0777 0.0585786 -0.0265245 -0.0343317
127 1 1 16.3906 7.86258 47.5257 0.00087988 -0.0494347 0.079795
128 1 1 15.7373 7.50981 48.0242 0.108946 0.144764 0.103144
129 1 3 17.0884 8.20779 47.9851 0.0990596 -0.0819489 0.0043644
130 1 1 9.92502 8.4825 47.4511 -0.102326 -0.00827957 0.0915063
131 1 1 11.7801 7.40681 47.4379 -0.086739 -0.0931391 -0.00105607
132 1 1 10.6945 7.90151 47.5387 -0.0153614 -0.230598 0.0907658
133 1 3 12.4728 14.5741 43.2252 0.146672 0.056596 -0.101237
134 1 1 13.3838 14.7387 43.0982 -0.0207716 0.0571588 -0.128995
135 1 1 15.6696 14.3285 43.4997 -0.105869 0.169996 -0.00229882
136 1 1 14.2139 14.7161 43.1579 -0.0210052 0.119888 -0.123788
137 1 3 14.949 14.8166 43.4854 -0.0783743 0.0299417 0.0161632
138 1 1 16.6117 13.4223 43.7022 0.0929209 -0.0673921 -0.000856143
139 1 1 16.1747 14.1717 43.7532 -0.00507398 0.0166566 0.187749
140 1 1 17.2901 13.1636 44.2516 -0.181352 -0.020056 -0.00379306
141 1 3 17.6113 12.2328 44.3494 0.107053 -0.097484 -0.0494166
142 1 1 17.7505 11.5086 44.4289 0.0716219 0.153137 -0.174791
143 1 1 18.1589 11.0036 45.1543 0.134598 0.138487 -0.091852
144 1 1 17.7428 8.88801 47.7019 0.0280257 0.0749261 -0.133445
145 1 3 18.1075 9.93792 46.2766 -0.0343375 0.0191407 -0.0734263
146 1 1 18.2535 10.4866 45.9271 -0.108834 -0.00632603 -0.12129
147 1 1 18.1867 9.59118 47.2682 0.0730674 0.092973 -0.00323135
148 1 1 10.8399 14.6473 44.2367 -0.0046704 0.0674315 0.164496
149 1 3 11.8402 15.0466 43.9323 -0.0936231 -0.0870298 -0.162907
150 1 1 9.30251 13.62 45.1614 0.0265543 -0.0786713 -0.113787
151 1 1 10.4262 14.8284 44.9791 0.240364 -0.041321 0.0144922
152 1 1 9.62838 14.3989 45.5821 0.0277062 -0.136638 0.136044
153 1 3 8.8498 11.9059 45.6005 -0.0399678 -0.103936 0.100349
154 1 1 8.67237 11.1083 46.283 0.00814837 0.0225699 -0.148521
155 1 1 8.90268 12.9878 45.6546 -0.0531803 -0.0217942 -0.085501
156 1 1 8.78271 10.4548 47.0339 0.0181172 -0.00457325 0.0864221
157 1 3 9.32946 9.23032 47.5806 -0.0274745 0.252773 0.101176
158 1 1 8.96209 9.92177 47.5675 0.131087 0.147423 -0.108619
159 1 1 12.2184 7.276 48.1066 0.114891 0.0402103 0.0982382
160 1 1 13.1207 7.09768 48.4213 -0.0882132 0.201507 -0.0418526
161 1 3 14.022 7.19593 48.8572 0.0021416 -0.00375721 0.0228386
162 1 1 14.9325 7.19742 48.598 0.0751849 0.112861 0.11357
163 1 1 16.4943 7.77905 48.4612 -0.149564 0.024704 -0.112008
164 1 1 15.8592 7.46131 48.7758 0.0265891 -0.129684 -0.0536854
165 1 3 17.7139 8.5385 48.5312 0.0368407 -0.0880695 -0.050169
166 1 1 17.1254 8.12844 48.7175 -0.0549604 0.00603899 0.00435604
167 1 1 10.1719 8.3157 48.1486 0.208545 0.170772 -0.0380381
168 1 1 9.67333 8.89143 48.1478 -0.297823 0.00397845 0.0158899
169 1 3 11.5245 7.60969 48.3965 -0.118147 0.0608839 0.0070566
170 1 1 10.8321 8.07232 48.6254 0.0132388 -0.253895 0.165148
171 1 1 12.7985 15.3648 43.7912 0.0667441 0.0126155 -0.00393858
172 1 1 13.6803 15.522 43.7974 -0.0295908 -0.0186 -0.0774705
173 1 3 15.6987 14.8687 43.9213 0.0492412 0.113121 -0.0135884
174 1 1 14.4845 15.453 43.9313 0.0704183 -0.0286467 0.0189737
175 1 1 15.2093 15.2776 44.0313 -0.0337743 0.0255429 -0.209165
176 1 1 16.3968 14.821 44.3877 0.119734 0.0979412 0.104058
177 1 3 16.8357 14.0983 44.2856 0.00676036 0.0470353 0.260836
178 1 1 17.4355 13.8365 44.8533 0.0334601 -0.0115938 0.0875055
179 1 1 17.9149 12.9243 44.9233 -0.0731744 0.190108 -0.226305
180 1 1 18.0754 11.8929 45.0222 0.0564888 -0.00295947 -0.0830942
181 1 3 18.4464 11.7987 45.8147 -0.0913606 0.0337561 -0.0388155
182 1 1 18.4966 11.1939 46.0601 -0.0458274 -0.00267764 -0.138655
183 1 1 18.316 9.33259 48.1981 0.0946473 -0.00628203 -0.10177
184 1 1 18.2128 8.91988 49.0309 -0.104652 0.0673907 -0.139821
185 1 3 18.5662 10.526 46.9164 0.0100656 0.0401333 0.105717
186 1 1 18.5752 9.96834 47.6912 -0.0939769 -0.0946297 -0.0669691
187 1 1 11.2526 15.363 44.6868 -0.125837 -0.0582619 -0.0966494
188 1 1 12.2029 15.7695 44.4866 -0.0782087 -0.0374736 -0.0171536
189 1 3 9.0842 13.7699 46.0259 0.0458447 -0.0840276 -0.0468842
190 1 1 9.31019 14.4037 46.4875 0.0444327 -0.114366 0.0822638
191 1 1 10.8472 15.4414 45.3032 -0.274885 0.128431 -0.117286
192 1 1 10.2929 15.132 45.6498 0.0698104 -0.0224087 -0.0551324
193 1 3 9.75161 14.9261 46.2673 -0.128287 -0.0230383 0.0902588
194 1 1 8.66076 12.2417 46.4804 0.050882 0.0740089 -0.00914751
195 1 1 8.60492 11.553 47.1176 -0.0166895 -0.00990466 -0.16825
196 1 1 8.70497 13.0976 46.659 0.167067 -0.0767815 -0.144823
197 1 3 8.7739 10.766 47.9827 -0.155656 0.0188685 -0.0564807
198 1 1 9.1019 9.86774 48.2794 0.118315 0.0648781 -0.0785455
199 1 1 12.2648 7.48366 48.8508 -0.0888151 0.0845084 -0.183667
200 1 1 12.7382 7.48881 49.2566 -0.0235966 -0.0439877 -0.0254434
201 1 3 13.5463 7.31187 49.3538 -0.140751 -0.106534 -0.24734
202 1 1 14.4373 7.29507 49.4479 0.00384532 0.0270957 0.0446374
203 1 1 15.3877 7.36009 49.5889 -0.0524581 0.202471 -0.0382003
204 1 1 16.5093 7.75589 49.4657 0.0671147 -0.0181417 0.21456
205 1 3 17.576 8.32704 49.5156 0.205468 0.0775043 0.0493064
206 1 1 10.1535 8.6667 48.8562 -0.11544 0.041835 -0.0262614
207 1 1 9.57556 9.41262 48.8487 0.181335 -0.00495431 -0.233708
208 1 1 11.4689 7.97583 49.1875 0.167206 -0.0506843 -0.0365883
209 1 3 10.7248 8.59797 49.4625 0.0188337 -0.0706646 -0.0512545
210 1 1 13.1125 15.9968 44.4663 -0.0538513 0.0957479 -0.0337317
211 1 1 13.9797 16.1096 44.5117 0.00725652 0.0716792 0.145318
212 1 1 15.7337 15.4477 44.5549 0.220725 0.0453453 0.0979551
213 1 3 14.9171 16.0149 44.6993 -0.0672724 -0.167921 -0.198766
214 1 1 16.385 15.3784 45.0564 -0.00133826 0.0553958 0.0368283
215 1 1 16.9975 14.6135 45.0401 -0.00694412 -0.102963 0.0210366
216 1 1 18.3918 8.91673 49.8221 0.0146568 -0.103437 0.0266238
217 1 3 18.7914 9.44529 49.1599 -0.114269 0.0476837 0.0053739
218 1 1 17.6113 14.4466 45.6454 0.0234173 0.00624838 0.0302339
219 1 1 18.0152 13.6552 45.6235 0.0834273 0.00396787 -0.107323
220 1 1 18.3738 12.6794 45.7654 0.0932836 -0.0739551 0.153457
221 1 3 18.8112 11.9991 46.4619 0.0521641 -0.154514 0.106171
222 1 1 18.8836 11.4454 47.0114 -0.141282 0.0167505 0.0852478
223 1 1 18.9146 10.0408 48.449 -0.233961 -0.165034 0.0618528
224 1 1 19.0443 10.7052 47.8412 0.174494 0.0224298 -0.161027
225 1 3 12.715 16.2839 45.2009 0.00676329 0.0546771 -0.173068
226 1 1 11.6842 16.0773 45.414 0.128833 0.0795107 0.0510335
227 1 1 8.90369 13.8183 47.1224 0.112816 0.139331 0.221145
228 1 1 9.26938 14.4336 47.2622 0.12763 0.0382098 0.0286123
229 1 3 9.67023 15.0222 47.0054 -0.177099 -0.049248 -0.0231428
230 1 1 10.8532 15.7809 46.0061 -0.06193 -0.110017 0.0511477
231 1 1 10.2058 15.4106 46.4759 0.107494 -0.158307 0.118329
232 1 1 8.5833 12.4721 47.4072 -0.00316836 -0.0529072 0.0172222
233 1 3 8.59033 11.8471 48.0553 0.0247461 0.173682 -0.0501273
234 1 1 8.66534 13.2268 47.7081 -0.183154 -0.00712179 0.109853
235 1 1 8.8654 11.3732 48.8557 -0.0172988 0.0545231 -0.126688
236 1 1 9.16075 10.4482 48.9666 0.109277 -0.101074 -0.0927675
237 1 3 12.2269 7.89931 49.5894 0.0446598 -0.067551 0.214907
238 1 1 12.9819 7.79867 50.1405 -0.106291 0.0802914 0.0438162
239 1 1 13.9474 7.5945 50.2058 -0.0667098 -0.0589671 0.0157203
240 1 1 14.9371 7.46391 50.2769 -0.196553 -0.0585146 -0.00547053
241 1 3 15.9835 7.61774 50.3921 0.0308669 0.0469914 0.173939
242 1 1 16.9979 7.95249 50.3262 0.00391681 0.0207114 0.00030674
243 1 1 17.8587 8.42389 50.4788 0.110045 -0.0362452 -0.0735326
244 1 1 10.0957 9.31115 49.6079 -0.0220289 -0.0666594 0.177135
245 1 3 9.57544 10.0762 49.5936 0.0398857 0.0355426 -0.0162403
246 1 1 11.4981 8.42642 50.0567 -0.0130478 0.121244 0.144695
247 1 1 10.8159 9.08277 50.2018 -0.00288382 0.0476999 0.150842
248 1 1 13.6366 16.4829 45.2091 0.125449 -0.0372721 -0.0379133
249 1 3 14.3024 16.4452 45.2114 -0.0543555 -0.202993 0.125822
250 1 1 15.6732 16.0611 45.2985 0.049195 -0.280681 -0.0528306
251 1 1 14.8587 16.4503 45.5915 -0.1741 0.0362346 0.0709966
252 1 1 16.3682 15.9645 45.8724 -0.129413 0.313076 -0.0726425
253 1 3 17.0295 15.2279 45.8263 -0.0692911 -0.0111932 0.209136
254 1 1 18.7584 9.06232 50.6266 0.0219516 0.10762 -0.0963757
255 1 1 19.1237 9.56947 49.9652 -0.0604234 0.0350489 0.0382149
256 1 1 19.3345 10.2269 49.2666 -0.0221424 -0.0965986 0.114021
257 1 3 17.6335 15.0332 46.3447 -0.0161414 0.0725937 -0.0604287
258 1 1 18.1613 14.2668 46.3136 -0.0855797 -0.108219 0.173593
259 1 1 18.4724 13.5772 46.2966 -0.0123513 0.169837 -0.0947389
260 1 1 18.8932 12.8961 46.8114 -0.0898299 0.0641515 -0.0097161
261 1 3 19.1729 12.3189 47.3327 0.00655777 0.0301461 -0.0919884
262 1 1 19.3238 11.5375 47.9238 0.0898133 -0.0129528 0.129466
263 1 1 19.4357 10.9377 48.6089 -0.120884 0.130709 -0.0262173
264 1 1 13.2478 16.6014 45.7368 0.00763472 0.138876 0.0570761
265 1 3 12.504 16.5292 46.0382 -0.0424782 -0.0948374 0.0993919
266 1 1 11.5503 16.2935 46.4303 0.1132 -7.29521e-05 0.0935185
267 1 1 9.002 13.9916 48.1319 0.108766 -0.0610561 -0.0430402
268 1 1 9.49156 14.7899 47.8075 -0.0574786 0.0137814 0.0423765
269 1 3 10.106 15.4861 47.3743 -0.0288973 0.0284051 0.133404
270 1 1 10.7583 15.9298 46.9002 0.0124043 0.158657 -0.100369
271 1 1 8.67604 12.6701 48.3293 -0.0140809 0.0345005 -0.111429
272 1 1 8.75518 12.1229 48.8115 0.00627088 0.0370392 0.02399
273 1 3 8.83894 13.2855 48.5997 -0.03502 0.168895 0.0288152
274 1 1 9.07607 11.9891 49.5614 -0.0938961 0.0652338 -0.0384605
275 1 1 9.23914 11.061 49.6033 -0.186584 -0.0298196 0.000606662
276 1 1 12.199 8.33929 50.569 0.0617113 0.105438 -0.0428031
277 1 3 12.809 8.24373 51.0366 0.105285 -0.0359212 0.119337
278 1 1 13.5675 7.92033 51.0892 0.0222885 0.135069 0.139653
279 1 1 14.5139 7.69528 51.0705 -0.0501978 -0.15823 -0.0913001
280 1 1 15.4663 7.62175 51.1641 -0.0118707 0.136425 -0.0703292
281 1 3 16.4897 7.75949 51.1743 0.160835 0.0290593 0.198482
282 1 1 17.4271 8.10122 51.2889 -0.183897 0.0088988 -0.0098591
283 1 1 18.3107 8.54528 51.3412 -0.0219831 0.0672292 0.125267
284 1 1 10.2921 9.85048 50.2956 0.0882738 -0.172668 -0.0272488
285 1 3 9.83439 10.6348 50.3753 -0.136059 -0.0831019 -0.0635594
286 1 1 11.4861 8.90527 50.7902 0.0917714 -0.0176692 -0.0307429
287 1 1 10.8785 9.60603 50.9244 0.0909127 -0.145057 -0.12378
288 1 1 14.1266 16.7706 46.0601 -0.0178027 -0.00513798 0.0385321
289 1 3 15.5261 16.4525 46.1081 -0.0656962 0.106369 -0.0760338
290 1 1 14.9367 16.7257 46.265 0.166512 -0.0662039 0.0163681
291 1 1 19.1831 9.21048 51.5598 -9.44077e-05 -0.0457759 0.0280785
292 1 1 16.3323 16.4238 46.6373 -0.032681 0.0724036 0.175423
293 1 3 17.0287 15.826 46.5059 -0.0421322 -0.0393449 -0.109624
294 1 1 19.4802 9.79625 50.8624 -0.0940651 -0.0111415 0.148444
295 1 1 19.7007 10.41 50.1435 -0.0674712 -0.134869 0.082093
296 1 1 19.7418 10.9901 49.3646 0.22758 -0.117659 -0.0128072
297 1 3 17.7862 15.5255 47.119 0.0553051 -0.0466483 -0.0171735
298 1 1 18.1549 14.832 46.7957 -0.0045206 -0.0517075 -0.0349083
299 1 1 18.7727 13.9916 47.1059 -0.0479201 -0.0522269 0.110787
300 1 1 19.2998 13.3041 47.6685 -0.208107 0.030848 0.0256625
301 1 3 19.6331 12.5627 48.1169 -0.0400629 -0.0359627 0.106246
302 1 1 19.7634 11.8961 48.7498 0.0294498 0.106698 0.0106476
303 1 1 11.3636 16.3642 47.3658 0.0874217 -0.0935415 0.129447
304 1 1 13.1935 16.7699 46.4518 -0.0678607 -0.125755 0.103289
305 1 3 12.2283 16.611 46.8883 0.0366292 -0.110043 0.0245563
306 1 1 9.15933 13.8382 49.0734 -0.0178742 -0.140648 -0.111174
307 1 1 9.54468 14.6983 48.7083 -0.0654809 0.00862555 -0.0321865
308 1 1 10.0027 15.3816 48.1402 0.176024 0.0964344 0.0289882
309 1 3 10.6487 15.9455 47.8345 0.00176505 0.2423 -0.12449
310 1 1 8.97408 12.9119 49.2722 -0.0626036 -0.0840779 -0.121018
311 1 1 9.30266 12.4703 50.0944 -0.140458 -0.0178013 -0.0359678
312 1 1 9.54424 11.654 50.3694 -0.107978 -0.104669 -0.0238939
313 1 3 12.1538 8.813 51.429 -0.0377575 -0.114321 0.174418
314 1 1 13.0354 8.38465 51.6899 0.135253 0.0460678 0.0299168
315 1 1 14.0422 8.07244 51.82 -0.131431 0.074819 0.118373
316 1 1 14.906 7.86822 51.9731 -0.0596285 -0.182214 -0.0510675
317 1 3 15.9073 7.80546 52.0017 -0.0136003 -0.0185999 -0.150855
318 1 1 16.7844 7.95404 52.1889 -0.0224113 -0.0641034 -0.0283627
319 1 1 17.8595 8.28345 52.1263 -0.0144476 -0.0359516 -0.0674841
320 1 1 18.8335 8.83121 52.2636 0.210923 -0.0659023 -0.0538706
321 1 3 10.4697 10.4152 51.0693 -0.166792 0.00701322 -0.151384
322 1 1 10.1122 11.0241 51.0255 -0.0888731 0.127898 0.149039
323 1 1 11.4376 9.47868 51.5158 0.0762028 0.0938922 0.041218
324 1 1 10.9545 10.0447 51.5052 0.0703348 -0.144667 -0.13701
325 1 3 13.8166 16.9962 46.9172 0.0326969 0.0286435 -0.031542
326 1 1 14.5212 17.0358 46.9316 0.00654348 -0.132417 -0.202735
327 1 1 15.4632 16.8425 47.0461 0.0660676 0.21503 -0.106514
328 1 1 16.4206 16.6941 47.3332 -0.0077772 0.0287501 -0.110168
329 1 3 19.6202 9.36163 52.3983 0.0686375 0.0897072 -0.0640093
330 1 1 19.9057 9.96004 51.7075 0.040031 0.0241504 -0.106839
331 1 1 17.1346 16.2603 47.3765 0.00455169 0.18854 -0.0279309
332 1 1 20.1 10.6099 51.019 -0.0030808 -0.12164 0.0369985
333 1 3 20.1693 11.2337 50.3441 -0.221087 -0.0325993 -0.00359634
334 1 1 20.1505 11.9453 49.6564 -0.0581106 0.169895 0.188387
335 1 1 17.9174 15.8563 47.7917 0.108959 -0.0670569 0.0328664
336 1 1 18.5606 15.0778 47.6496 0.0347361 0.161748 0.0239492
337 1 3 19.2112 14.3141 48.0068 -0.0383527 0.0734191 -0.225821
338 1 1 19.7221 13.5011 48.5036 0.146297 -0.253959 0.345551
339 1 1 20.0607 12.7163 49.0159 -0.228022 -0.0771212 0.108962
340 1 1 9.34997 13.7145 49.7107 -0.134819 0.0932765 0.170347
341 1 3 11.3262 16.3388 48.2686 -0.0288195 -0.131905 0.0806028
342 1 1 12.07 16.6439 47.8768 -0.0407234 -0.0463368 -0.0611358
343 1 1 12.9999 16.9256 47.4084 -0.0520626 0.10446 -0.0159913
344 1 1 9.622 14.3857 49.5596 -0.0598198 0.10501 0.114788
345 1 3 10.064 15.2325 49.1802 -0.11515 -0.0672708 -0.0597489
346 1 1 10.6038 15.8497 48.7737 0.0767236 -0.0918897 0.070457
347 1 1 11.3646 16.2336 49.1451 0.0124199 0.145508 0.172639
348 1 1 9.38099 13.1141 50.1486 0.139382 0.023752 -0.0203321
349 1 3 9.69306 12.5606 50.8324 0.0230293 0.0430173 -0.105847
350 1 1 10.1573 11.7845 51.3984 -0.15022 0.045344 0.0804845
351 1 1 12.0283 9.404 52.0795 -0.0653398 -0.0958076 -0.0759788
352 1 1 12.7233 8.90498 52.3591 -0.106679 -0.138904 -0.11037
353 1 3 13.5076 8.59056 52.5184 -0.142595 0.00822215 0.00226568
354 1 1 14.3736 8.25448 52.62 -0.0861869 0.126934 -0.0790927
355 1 1 15.3352 8.03252 52.7969 0.0870377 -0.0511758 -0.0166788
356 1 1 16.2859 7.96159 52.891 -0.097336 0.0522384 -0.122191
357 1 3 17.2924 8.09023 52.9277 -0.0905383 -0.0262707 -0.0568063
358 1 1 18.3422 8.51094 52.9873 0.227321 -0.0392517 -0.00578852
359 1 1 19.2957 8.93861 53.1819 0.0813562 0.020025 0.0884032
360 1 1 10.6789 11.0054 51.8973 -0.0781597 0.0452107 -0.0452491
361 1 3 11.5208 10.1602 52.294 0.0791461 0.0150376 -0.0233676
362 1 1 13.9803 17.153 47.6483 0.0961552 0.0438595 0.142623
363 1 1 14.8257 17.2122 47.8867 -0.0305642 0.124352 -0.0672622
364 1 1 15.872 17.0769 47.9836 -0.0347194 0.0666966 0.111793
365 1 3 16.745 16.8251 48.0552 -0.0621873 0.0455406 0.0702129
366 1 1 20.0733 9.59683 53.2369 -0.0412383 0.0535479 0.139158
367 1 1 20.4033 10.1266 52.6196 0.0954295 0.0233559 -0.0312556
368 1 1 20.5578 10.8157 51.9348 -0.0964469 -0.0277651 -0.01736
369 1 3 17.5354 16.4551 48.3048 -0.058988 0.0398889 -0.0383062
370 1 1 20.6153 11.5101 51.2444 -0.0958169 0.0690766 0.137106
371 1 1 20.5524 12.1894 50.5591 -0.0606047 -0.0506015 -0.00286744
372 1 1 20.4047 12.931 49.9227 -0.0992014 0.32655 -0.0552366
373 1 3 18.3493 15.8048 48.4603 -0.0695502 -0.00536222 -0.0234902
374 1 1 19.0049 15.1571 48.5854 -0.038274 0.0570795 -0.0335038
375 1 1 19.5983 14.4449 48.8652 -0.106838 0.0479427 -0.0812559
376 1 1 20.1028 13.7049 49.3133 0.0293536 -0.0168916 0.0758784
377 1 3 9.78508 14.1322 50.442 -0.0794233 0.102954 -0.0756029
378 1 1 12.0388 16.6557 48.7628 -0.0587367 0.00699326 0.0350046
379 1 1 12.6366 16.9073 48.3496 0.114064 -0.0236739 0.106425
380 1 1 13.3903 17.1581 48.4664 0.0737373 -0.073743 0.122005
381 1 3 10.1514 15.0536 50.0961 -0.0943268 0.048153 -0.14167
382 1 1 10.7349 15.6648 49.6746 -0.113616 -0.0421835 -0.126905
383 1 1 11.4109 16.1763 50.0786 0.201488 0.073894 -0.200495
384 1 1 11.9141 16.5377 49.5168 -0.192604 0.0519455 -0.058374
385 1 3 9.93256 13.3465 51.1191 0.155743 0.0388052 -0.156735
386 1 1 10.21 12.6134 51.6934 0.0178539 -0.107835 0.064175
387 1 1 10.6185 11.905 52.3145 0.015101 0.00081813 0.145348
388 1 1 12.3052 9.70395 52.7357 0.0154247 -0.0270489 0.157502
389 1 3 13.1182 9.23285 53.1619 0.142748 -0.0223467 -0.117911
390 1 1 14.0486 8.81773 53.3016 0.146077 -0.12287 -0.0528765
391 1 1 14.8657 8.47452 53.5138 0.0669403 -0.136898 0.116895
392 1 1 15.8473 8.21273 53.6719 0.0556984 0.102631 -0.13765
393 1 3 16.8458 8.18116 53.7931 0.0361728 0.0844082 0.0939068
394 1 1 17.8238 8.32727 53.7869 0.0341338 0.0515208 -0.106146
395 1 1 18.8222 8.6702 53.9529 -0.134596 -0.0472366 -0.162468
396 1 1 19.6784 9.17623 54.0981 -0.022081 0.117056 -0.0714269
397 1 3 11.2441 11.1782 52.7509 -0.00234788 0.0901601 -0.0784045
398 1 1 11.9256 10.5824 53.1405 0.062963 -0.0302708 0.0410412
399 1 1 14.2638 17.3534 48.6208 0.0519619 -0.0330876 0.0990485
400 1 1 15.2808 17.3494 48.7098 -0.137304 0.0786777 -0.0343856
401 1 3 16.1738 17.2336 48.7937 -0.0980021 -6.53496e-05 -0.0585213
402 1 1 20.4541 9.73046 54.1628 -0.0433873 0.00016014 0.0451384
403 1 1 17.1147 17.0098 49.0035 0.080667 0.227458 -0.147635
404 1 1 20.8558 10.3553 53.4835 -0.0671573 0.0490479 0.0159528
405 1 3 21.0497 10.9198 52.8304 -0.0677398 0.0197566 -0.0168034
406 1 1 21.0541 11.6156 52.1578 0.128488 0.0728726 -0.0628921
407 1 1 17.9318 16.5148 49.0864 -0.0421324 0.122063 0.0552223
408 1 1 21.0058 12.3839 51.4414 -0.0780097 0.125282 -0.139133
409 1 3 20.8244 13.124 50.8231 -0.0383747 -0.206788 -0.0554513
410 1 1 20.4233 13.839 50.2742 0.0939372 0.080892 0.0889541
411 1 1 18.705 15.8946 49.2513 0.0791407 0.0794482 0.0739978
412 1 1 19.3993 15.3146 49.4487 0.0386952 -0.066366 0.147642
413 1 3 19.9913 14.6486 49.8324 -0.0716969 0.0239211 0.00358296
414 1 1 10.3878 14.8805 50.8669 0.0222219 0.00513249 -0.113913
415 1 1 10.3343 14.3183 51.4557 0.153804 0.0491079 -0.0704574
416 1 1 12.8287 16.983 49.3988 0.070062 0.0783192 -0.0380493
417 1 3 13.7611 17.378 49.4406 -0.137594 -0.00812619 0.192903
418 1 1 10.8043 15.5279 50.6011 -0.045466 -0.0997968 -0.0896292
419 1 1 11.5133 16.1714 50.8425 0.135881 0.214537 0.0487548
420 1 1 12.2106 16.7011 50.4444 0.0514419 0.0609347 -0.0539238
421 1 3 10.3755 13.5754 51.9496 0.17153 0.0588018 -0.0923357
422 1 1 10.6451 12.8589 52.5622 -0.128931 0.100459 -0.0625685
423 1 1 11.0526 12.1241 53.1358 0.150578 0.105058 0.0475185
424 1 1 12.7605 9.93899 53.6148 0.139548 -0.114621 0.0602773
425 1 3 13.6356 9.47935 53.9135 0.117654 0.081867 0.151482
426 1 1 14.4644 9.06858 54.2448 -0.133884 0.0341418 0.0484027
427 1 1 15.3262 8.62217 54.4031 -0.080364 0.0142828 -0.0752545
428 1 1 16.3177 8.42618 54.6074 -0.0470815 0.0359334 0.0249894
429 1 3 20.1685 9.31333 54.9724 -0.1128 -0.0122538 0.117128
430 1 1 17.2901 8.32646 54.6638 0.144488 0.0259153 0.068923
431 1 1 18.2718 8.51457 54.6913 0.0278575 0.0916156 -0.0173433
432 1 1 19.3058 8.87049 54.8776 0.0537202 -0.115027 0.116085
433 1 3 11.6427 11.4333 53.5929 -0.0130485 0.0247304 0.0685606
434 1 1 12.3804 10.7305 54.0355 -0.0960966 0.0295725 0.326877
435 1 1 14.6826 17.5695 49.5189 -0.139769 -0.0757502 -0.0567728
436 1 1 15.6406 17.5862 49.5905 -0.0986356 0.0588355 0.0814197
437 1 3 16.5753 17.4644 49.6564 0.0516122 -0.206035 0.159027
438 1 1 20.9154 9.86518 55.0863 -0.0436148 -0.0448863 -0.257777
439 1 1 21.2649 10.4759 54.3928 -0.168917 0.0836372 0.0497333
440 1 1 17.5243 17.1543 49.8392 -0.145698 -0.00920481 -0.190071
441 1 3 21.4858 11.1235 53.6878 -0.0177911 0.0132292 -0.0446198
442 1 1 21.4953 11.801 52.9553 0.231797 0.0680462 -0.0309268
443 1 1 21.4142 12.5437 52.3298 -0.0269217 -0.0809429 -0.0650603
444 1 1 18.3772 16.6499 49.9716 0.0986212 0.0582692 -0.107183
445 1 3 21.2035 13.3156 51.6961 0.0509559 -0.0980417 0.158334
446 1 1 20.9318 14.0677 51.077 0.0331565 -0.100959 0.154894
447 1 1 20.3985 14.8968 50.7156 0.00163195 -0.0739177 0.259861
448 1 1 19.1443 16.1291 50.0628 0.037881 -0.0582328 0.138185
449 1 3 19.7862 15.5752 50.2786 0.0420421 0.0571817 -0.0171179
450 1 1 10.8254 15.1246 51.4591 0.0848227 -0.223701 -0.226311
451 1 1 10.7215 14.4975 52.1714 -0.03136 -0.0237997 -0.0297163
452 1 1 13.1683 17.2541 50.3486 0.17768 0.0811329 -0.00247358
453 1 3 14.117 17.5889 50.3218 0.135042 -0.0169668 0.00854748
454 1 1 11.3542 15.8121 51.5352 0.0048983 0.0393623 0.00457015
455 1 1 11.9439 16.5095 51.473 -0.0535469 0.0323316 -0.0351277
456 1 1 12.7207 17.0343 51.236 -0.0233284 -0.0947379 -0.0104667
457 1 3 10.7685 13.841 52.8069 -0.0584291 0.0672103 -0.0529143
458 1 1 11.0525 13.0917 53.3755 -0.0544665 0.0574046 -0.0946987
459 1 1 11.4781 12.4056 54.01 -0.0461704 -0.0243581 0.111525
460 1 1 13.1535 10.174 54.4335 0.288811 0.0769008 -0.0429011
461 1 3 14.0006 9.74633 54.8698 0.116986 -0.126096 -0.0387693
462 1 1 14.8317 9.17767 55.1061 0.00960274 -0.0586476 0.00344577
463 1 1 15.6669 8.85082 55.3289 -0.147319 -0.0452741 -0.138512
464 1 1 16.6638 8.59881 55.4613 -0.015032 -0.00567093 0.076647
465 1 3 20.5523 9.44385 55.908 0.144454 0.00975085 -0.142956
466 1 1 19.6786 8.96648 55.7574 -0.214778 0.237377 0.0486682
467 1 1 17.6833 8.56385 55.5938 0.0551109 -0.0713376 0.180113
468 1 1 18.6694 8.6464 55.5996 0.0171088 0.0597567 0.0342712
469 1 3 12.1255 11.5489 54.432 -0.0346492 0.135702 -0.0693339
470 1 1 12.9056 10.8876 54.9164 0.0272004 -0.0827666 -0.0974723
471 1 1 15.0182 17.7465 50.3555 -0.101831 -0.031068 0.0476334
472 1 1 16.0638 17.7856 50.3855 -0.0739624 -0.133672 -0.034892
473 1 3 17.0864 17.6459 50.5047 -0.0360908 0.0158476 -0.0696947
474 1 1 21.3564 10.0523 55.9908 0.0983184 0.115964 0.0488394
475 1 1 21.6946 10.6059 55.2303 -0.196506 -0.170793 0.0351236
476 1 1 21.9214 11.3072 54.5834 0.0266351 0.0583747 0.0248693
477 1 3 17.9514 17.3457 50.7357 0.0440723 -0.147547 0.0532023
478 1 1 21.8818 11.9592 53.9022 -0.228114 0.201528 0.0419456
479 1 1 21.8682 12.6935 53.2383 -0.263151 -0.153553 0.0285591
480 1 1 21.7113 13.4821 52.5766 0.174314 -0.0391837 0.0425647
481 1 3 18.8494 16.8664 50.8106 -0.015351 -0.0075184 0.157396