ITEM: TIMESTEP
100000000
ITEM: NUMBER OF ATOMS
94148
ITEM: BOX BOUNDS pp pp pp
0 62
0 62
0 62
ITEM: ATOMS id mol type x y z 
1 1 1 13.3809 58.6516 17.5287 
2 1 1 13.6986 58.079 18.1431 
3 1 1 14.139 58.4318 17.1579 
4 1 1 14.4401 57.7829 17.8025 
5 1 1 13.5132 58.937 16.5661 
6 1 1 14.8707 58.0163 16.8978 
7 1 1 15.2373 57.2808 17.3802 
8 1 1 12.7965 58.3655 18.2018 
9 1 1 13.0752 57.6893 18.8341 
10 1 1 13.9285 57.4163 18.6336 
11 1 1 14.6691 57.1203 18.2487 
12 1 1 15.3843 56.5448 18.0654 
13 1 1 12.3927 58.8941 17.5476 
14 1 1 12.8345 59.0714 16.9564 
15 1 1 12.8081 59.2281 16.1763 
16 1 1 14.2783 58.6045 16.2335 
17 1 1 13.5904 59.0076 15.6584 
18 1 1 15.7587 56.6164 17.3477 
19 1 1 15.9279 56.804 16.5962 
20 1 1 15.4294 57.4562 16.3338 
21 1 1 14.9498 58.107 15.8939 
22 1 1 11.5916 58.8791 17.5243 
23 1 1 11.9383 58.3839 18.2896 
24 1 1 12.1462 57.808 18.8888 
25 1 1 12.3621 57.1676 19.4168 
26 1 1 13.3032 56.8934 19.3675 
27 1 1 14.0818 56.6416 19.1414 
28 1 1 15.9069 55.9039 17.8108 
29 1 1 14.8205 56.2158 18.8326 
30 1 1 15.5011 55.635 18.5266 
31 1 1 11.9198 59.2077 16.6714 
32 1 1 12.1549 59.3917 15.7367 
33 1 1 12.8772 59.2397 15.2106 
34 1 1 14.3802 58.6063 15.2656 
35 1 1 13.5759 58.9675 14.7464 
36 1 1 16.1956 55.9971 17.0246 
37 1 1 16.327 56.2016 16.1249 
38 1 1 16.3131 55.2026 17.3088 
39 1 1 15.9657 56.8964 15.7285 
40 1 1 15.5701 57.4604 15.32 
41 1 1 15.0103 58.0743 14.7799 
42 1 1 10.9846 59.0427 17.0018 
43 1 1 10.6622 58.6225 17.6214 
44 1 1 11.019 58.2932 18.2345 
45 1 1 11.3802 57.9226 18.784 
46 1 1 11.3905 57.3125 19.3166 
47 1 1 11.5434 56.6672 19.8161 
48 1 1 12.5192 56.3423 19.8839 
49 1 1 13.4859 56.0377 19.7428 
50 1 1 14.2586 55.6181 19.4811 
51 1 1 15.9666 55.0254 18.0999 
52 1 1 14.9402 55.1958 19.1353 
53 1 1 15.4816 54.8209 18.7017 
54 1 1 10.9529 59.1874 16.2219 
55 1 1 10.0466 58.8709 16.4255 
56 1 1 11.4476 59.3711 15.6313 
57 1 1 12.0215 59.3845 14.9017 
58 1 1 10.6396 59.3085 15.2674 
59 1 1 12.7342 59.1127 14.312 
60 1 1 14.3167 58.488 14.2203 
61 1 1 13.4474 58.8128 13.7499 
62 1 1 16.3613 56.297 15.3454 
63 1 1 16.5195 55.4396 16.4534 
64 1 1 16.6254 55.6021 15.6118 
65 1 1 16.2433 54.3682 17.5782 
66 1 1 16.5676 54.5658 16.7622 
67 1 1 16.0062 56.7268 14.8423 
68 1 1 15.5859 57.4124 14.3314 
69 1 1 14.9274 57.8913 13.8106 
70 1 1 10.0199 58.6021 17.2312 
71 1 1 10.04 58.1914 17.9944 
72 1 1 10.4463 57.5816 18.8885 
73 1 1 10.6083 56.8572 19.5445 
74 1 1 10.8194 56.1183 20.0138 
75 1 1 11.795 55.7874 20.1718 
76 1 1 12.7741 55.4262 20.0926 
77 1 1 13.6732 55.0708 19.822 
78 1 1 14.4 54.6704 19.5527 
79 1 1 15.776 54.1847 18.3372 
80 1 1 15.0876 54.0644 19.1178 
81 1 1 15.9288 53.4964 17.8535 
82 1 1 9.20042 58.4196 16.6881 
83 1 1 9.92108 59.0581 15.4948 
84 1 1 9.38858 58.7536 15.9466 
85 1 1 11.1356 59.3541 14.6934 
86 1 1 11.7353 59.1768 14.0134 
87 1 1 10.2627 59.1709 14.5926 
88 1 1 12.4363 58.8975 13.4042 
89 1 1 14.1215 58.2806 13.1881 
90 1 1 13.0505 58.5565 12.8264 
91 1 1 16.4805 55.8547 14.5361 
92 1 1 16.7267 54.7902 15.7791 
93 1 1 16.6841 54.9544 14.8761 
94 1 1 16.358 53.6808 16.9767 
95 1 1 16.6254 53.9245 16.1114 
96 1 1 15.9847 56.6067 13.8722 
97 1 1 15.4181 57.2163 13.3727 
98 1 1 14.6241 57.7282 12.743 
99 1 1 9.22808 58.0831 17.5603 
100 1 1 9.44382 57.5473 18.3681 
101 1 1 9.62391 56.8813 19.0986 
102 1 1 9.80112 56.1272 19.7264 
103 1 1 11.1364 55.3725 20.1814 
104 1 1 10.3282 55.3607 20.0444 
105 1 1 11.8706 54.7671 20.244 
106 1 1 13.0127 54.4647 20.1 
107 1 1 13.7778 54.1467 19.8853 
108 1 1 14.3303 53.7474 19.5475 
109 1 1 16.1032 52.8521 17.2116 
110 1 1 15.3774 53.2807 18.5875 
111 1 1 14.6764 53.1632 19.2007 
112 1 1 15.6682 52.5669 17.9982 
113 1 1 8.67871 58.4311 15.8933 
114 1 1 8.53293 57.9723 16.8709 
115 1 1 9.13118 58.6998 14.9154 
116 1 1 8.36553 58.1571 15.0792 
117 1 1 10.6539 59.0851 13.9182 
118 1 1 11.4382 58.863 13.1677 
119 1 1 9.72486 58.752 13.9015 
120 1 1 12.1319 58.4694 12.4862 
121 1 1 13.6727 58.0379 12.3218 
122 1 1 12.7174 58.1454 12.0245 
123 1 1 16.2538 55.7337 13.5847 
124 1 1 16.5045 55.0954 14.0289 
125 1 1 16.6989 54.1315 15.0974 
126 1 1 16.5913 54.3797 14.1759 
127 1 1 16.4408 53.0286 16.4052 
128 1 1 16.6755 53.1531 15.5394 
129 1 1 16.2144 52.1758 16.7086 
130 1 1 14.1966 57.3818 11.9069 
131 1 1 15.8112 56.2681 13.0589 
132 1 1 14.9566 56.8221 12.3175 
133 1 1 8.55127 57.4576 17.6957 
134 1 1 8.76813 56.8955 18.4883 
135 1 1 9.57125 55.2777 19.836 
136 1 1 8.93964 56.285 19.1141 
137 1 1 8.95279 55.5418 19.466 
138 1 1 10.8037 54.6084 20.1997 
139 1 1 9.95482 54.5932 19.9617 
140 1 1 11.3353 53.7994 20.2695 
141 1 1 12.3734 53.7377 20.1955 
142 1 1 13.195 53.6335 20.039 
143 1 1 13.812 53.0301 19.6621 
144 1 1 15.8548 51.8268 17.517 
145 1 1 15.0797 52.4409 18.7632 
146 1 1 14.4095 52.417 19.2113 
147 1 1 15.3003 51.6731 18.2269 
148 1 1 8.07945 57.8924 15.9889 
149 1 1 7.91089 57.2812 16.9232 
150 1 1 8.89767 58.2238 13.9734 
151 1 1 7.74936 57.5216 15.2585 
152 1 1 8.19354 57.7415 14.1914 
153 1 1 10.483 58.6185 13.1205 
154 1 1 11.1817 58.3001 12.372 
155 1 1 9.51201 58.2107 13.208 
156 1 1 11.8812 57.8694 11.6701 
157 1 1 13.3499 57.4709 11.6246 
158 1 1 12.554 57.6012 11.4212 
159 1 1 16.0257 55.4027 12.9182 
160 1 1 16.2973 54.6293 13.1966 
161 1 1 16.4992 53.7203 13.7299 
162 1 1 16.681 53.4051 14.468 
163 1 1 16.4911 52.307 15.8824 
164 1 1 16.6124 52.5311 15.0613 
165 1 1 16.1448 51.2855 16.7911 
166 1 1 16.3817 51.5683 16.1341 
167 1 1 14.4274 56.6606 11.6049 
168 1 1 13.7214 56.858 11.2915 
169 1 1 15.5043 55.7548 12.3443 
170 1 1 14.8632 55.9124 11.7055 
171 1 1 7.89051 56.7092 17.7278 
172 1 1 8.07651 56.1588 18.4087 
173 1 1 9.16173 54.6283 19.7071 
174 1 1 8.23811 55.4887 18.9211 
175 1 1 8.5319 54.836 19.3186 
176 1 1 9.46635 53.8894 19.8325 
177 1 1 10.3811 53.8106 20.1656 
178 1 1 10.8521 52.9926 20.0843 
179 1 1 11.8327 52.9574 20.113 
180 1 1 12.7436 52.9538 20.0297 
181 1 1 13.1218 52.2536 19.7509 
182 1 1 13.7226 51.9146 19.4567 
183 1 1 15.5582 50.8606 17.6317 
184 1 1 15.9074 50.4976 16.8029 
185 1 1 14.5231 51.5514 18.9356 
186 1 1 14.9728 50.9178 18.291 
187 1 1 7.53292 57.1032 16.0549 
188 1 1 7.36467 56.4852 16.8145 
189 1 1 8.74372 57.7886 13.2731 
190 1 1 8.17693 57.2248 13.1986 
191 1 1 7.32903 56.8243 15.3463 
192 1 1 7.56281 57.0438 14.6326 
193 1 1 7.729 57.0407 13.8415 
194 1 1 10.2087 58.0388 12.3977 
195 1 1 10.8683 57.6103 11.6793 
196 1 1 9.4222 57.6479 12.383 
197 1 1 11.8044 57.1459 11.1488 
198 1 1 12.8454 56.9169 11.0483 
199 1 1 15.7769 54.8634 12.3792 
200 1 1 16.0043 54.123 12.5205 
201 1 1 16.3055 53.5798 13.04 
202 1 1 16.4939 52.9074 13.5536 
203 1 1 16.5963 52.2569 14.2476 
204 1 1 16.5642 51.6184 15.0912 
205 1 1 16.3242 50.6214 15.8837 
206 1 1 14.1385 56.0371 11.1609 
207 1 1 13.2106 56.163 10.8085 
208 1 1 15.1444 55.0278 11.7297 
209 1 1 14.4569 55.1906 11.1345 
210 1 1 7.38361 55.8859 17.6481 
211 1 1 7.53547 55.2455 18.2852 
212 1 1 8.67009 54.0759 19.3904 
213 1 1 7.89941 54.4538 18.798 
214 1 1 8.9727 53.2601 19.457 
215 1 1 9.87534 53.1498 19.9038 
216 1 1 15.9607 49.7871 16.4097 
217 1 1 15.5436 49.88 17.2877 
218 1 1 10.2479 52.3198 19.7692 
219 1 1 11.1861 52.1694 19.8971 
220 1 1 12.2694 51.9932 19.8431 
221 1 1 13.0142 51.4567 19.5707 
222 1 1 13.7041 50.9408 19.2133 
223 1 1 15.0019 50.1851 17.9866 
224 1 1 14.3566 50.476 18.697 
225 1 1 6.97684 55.538 16.848 
226 1 1 6.98716 56.1356 15.9249 
227 1 1 8.76682 57.1048 12.3968 
228 1 1 8.16618 56.6474 12.5958 
229 1 1 7.67375 56.5411 13.2207 
230 1 1 7.12359 56.2372 14.8324 
231 1 1 7.3496 56.376 14.0151 
232 1 1 10.0462 57.2786 11.7061 
233 1 1 10.7047 56.7745 11.2334 
234 1 1 9.27299 56.7667 11.7207 
235 1 1 11.2116 56.2298 10.7656 
236 1 1 12.2457 56.3119 10.7518 
237 1 1 15.522 54.2491 11.8924 
238 1 1 15.9039 53.3107 12.1134 
239 1 1 16.249 52.67 12.7475 
240 1 1 16.4521 51.9586 13.3678 
241 1 1 16.555 51.3069 14.0902 
242 1 1 16.4983 50.495 14.8589 
243 1 1 16.3164 49.6004 15.5484 
244 1 1 13.6584 55.3797 10.7819 
245 1 1 12.6965 55.4304 10.5921 
246 1 1 14.8754 54.3278 11.2529 
247 1 1 14.1188 54.4659 10.7051 
248 1 1 7.14696 54.9762 17.627 
249 1 1 7.3464 54.3723 18.0462 
250 1 1 8.19587 53.4651 18.8458 
251 1 1 7.59621 53.6556 18.2367 
252 1 1 8.54571 52.584 18.9306 
253 1 1 9.37471 52.4577 19.4584 
254 1 1 15.9807 48.8283 16.0849 
255 1 1 15.5898 49.0371 16.9073 
256 1 1 14.9738 49.2131 17.6413 
257 1 1 9.78725 51.6605 19.4249 
258 1 1 10.6366 51.4838 19.6687 
259 1 1 11.4295 51.3622 19.8024 
260 1 1 12.2146 50.8075 19.6558 
261 1 1 12.9003 50.4504 19.3416 
262 1 1 13.6158 49.9797 18.9217 
263 1 1 14.3617 49.6235 18.3923 
264 1 1 6.89205 54.7184 16.9455 
265 1 1 6.75239 55.1193 16.1882 
266 1 1 6.8474 55.3339 15.1937 
267 1 1 8.56999 56.1062 11.9241 
268 1 1 7.75215 55.9112 12.6207 
269 1 1 7.28302 55.7827 13.3786 
270 1 1 7.00455 55.6046 14.261 
271 1 1 9.85732 56.4688 11.2147 
272 1 1 10.3923 56.0534 10.8384 
273 1 1 9.26844 55.9875 11.2793 
274 1 1 10.8257 55.449 10.5508 
275 1 1 11.7428 55.5129 10.5144 
276 1 1 15.2251 53.4447 11.2621 
277 1 1 15.4533 52.6652 11.3273 
278 1 1 15.8493 52.1658 11.892 
279 1 1 16.1762 51.6043 12.5137 
280 1 1 16.4754 51.0151 13.1969 
281 1 1 16.5347 50.3037 13.9754 
282 1 1 16.4857 49.4721 14.5786 
283 1 1 16.2793 48.6827 15.2008 
284 1 1 13.1582 54.6604 10.4473 
285 1 1 12.2615 54.6227 10.3335 
286 1 1 14.4923 53.6346 10.7329 
287 1 1 13.5919 53.8658 10.3895 
288 1 1 7.09711 53.8877 17.328 
289 1 1 7.85719 52.8361 18.3521 
290 1 1 7.42432 53.1284 17.7709 
291 1 1 15.9176 47.8839 15.8546 
292 1 1 8.20685 51.8616 18.4384 
293 1 1 8.89514 51.7614 18.9896 
294 1 1 15.4951 48.0886 16.6956 
295 1 1 14.9615 48.3229 17.3967 
296 1 1 14.3812 48.6553 18.0998 
297 1 1 9.38702 51.0094 19.0003 
298 1 1 10.1412 50.9454 19.3429 
299 1 1 11.0803 50.5133 19.5195 
300 1 1 11.9989 49.9109 19.4048 
301 1 1 12.8529 49.5361 19.1555 
302 1 1 13.658 49.0651 18.7221 
303 1 1 6.83366 54.7224 14.5625 
304 1 1 6.75364 54.171 16.4106 
305 1 1 6.74978 54.4308 15.5493 
306 1 1 8.79847 55.3364 11.4291 
307 1 1 8.10102 55.26 12.0564 
308 1 1 7.44687 55.1424 12.7567 
309 1 1 7.02655 54.9683 13.6055 
310 1 1 9.7254 55.4085 10.8663 
311 1 1 10.3342 54.7782 10.4236 
312 1 1 11.2455 54.5909 10.2194 
313 1 1 14.7671 52.6938 10.7167 
314 1 1 15.3332 51.9048 11.0277 
315 1 1 15.8543 51.3121 11.6096 
316 1 1 16.2756 50.6779 12.2112 
317 1 1 16.4417 50.0844 12.9277 
318 1 1 16.5353 49.3457 13.5997 
319 1 1 16.4698 48.5112 14.3423 
320 1 1 16.2614 47.7311 14.9339 
321 1 1 12.7614 53.8986 10.1922 
322 1 1 11.9499 53.8672 10.052 
323 1 1 13.9212 53.038 10.2783 
324 1 1 13.1879 53.1887 10.0521 
325 1 1 6.9033 53.3394 16.5196 
326 1 1 7.11981 52.8806 17.0972 
327 1 1 7.53241 52.1671 17.7376 
328 1 1 7.92165 51.2237 18.0305 
329 1 1 15.8981 46.9421 15.6305 
330 1 1 15.42 47.1239 16.4516 
331 1 1 8.53751 50.8733 18.5141 
332 1 1 14.9081 47.3307 17.1955 
333 1 1 14.3 47.697 17.8411 
334 1 1 13.6667 48.1868 18.4365 
335 1 1 9.23827 50.2207 18.7371 
336 1 1 10.0492 50.0696 19.0503 
337 1 1 11.0936 49.4713 19.2234 
338 1 1 11.9603 48.9809 19.1232 
339 1 1 12.8215 48.5793 18.9096 
340 1 1 9.06285 54.7086 11.0836 
341 1 1 6.89669 54.1332 13.8029 
342 1 1 6.7609 53.7365 14.6478 
343 1 1 6.75166 53.384 15.6443 
344 1 1 8.43759 54.5476 11.5585 
345 1 1 7.77714 54.4145 12.248 
346 1 1 7.21888 54.2707 12.9957 
347 1 1 6.97832 53.3899 13.1471 
348 1 1 9.71508 54.3783 10.6057 
349 1 1 10.3197 53.9542 10.1719 
350 1 1 11.1596 53.5299 9.90582 
351 1 1 14.1784 52.2498 10.1976 
352 1 1 14.7142 51.6603 10.4644 
353 1 1 15.3214 50.9917 10.8276 
354 1 1 15.8246 50.397 11.3306 
355 1 1 16.161 49.7852 12.0064 
356 1 1 16.4239 49.1043 12.6586 
357 1 1 16.4987 48.3911 13.3277 
358 1 1 16.4072 47.5101 14.0721 
359 1 1 16.1678 46.7649 14.6902 
360 1 1 12.2258 53.012 9.80948 
361 1 1 13.2566 52.3132 9.76222 
362 1 1 6.86414 52.5374 16.259 
363 1 1 7.11353 51.9436 16.8304 
364 1 1 7.48117 51.0754 17.3749 
365 1 1 8.03845 50.431 17.8107 
366 1 1 15.87 45.9655 15.4017 
367 1 1 15.5002 46.2002 16.1504 
368 1 1 14.8567 46.3345 16.9455 
369 1 1 8.69024 49.8946 18.2297 
370 1 1 14.3032 46.7195 17.5996 
371 1 1 13.5696 47.1382 18.2456 
372 1 1 12.8611 47.5886 18.6544 
373 1 1 9.34275 49.3903 18.5909 
374 1 1 10.2172 49.063 18.8585 
375 1 1 11.0519 48.5011 18.929 
376 1 1 11.9635 48.0494 18.9078 
377 1 1 8.92714 53.7917 10.9798 
378 1 1 6.76019 53.187 13.923 
379 1 1 6.71911 52.922 14.7242 
380 1 1 6.69962 52.2254 15.3102 
381 1 1 8.06093 53.664 11.6701 
382 1 1 7.45315 53.5984 12.4088 
383 1 1 7.17585 52.7101 12.5484 
384 1 1 6.85329 52.6422 13.3025 
385 1 1 9.77221 53.3431 10.3575 
386 1 1 10.5267 52.9435 9.89468 
387 1 1 11.3579 52.5136 9.5845 
388 1 1 13.9875 51.4459 9.94595 
389 1 1 14.6073 50.76 10.1526 
390 1 1 15.3488 50.0076 10.5886 
391 1 1 15.7996 49.4124 11.1028 
392 1 1 16.1547 48.8037 11.721 
393 1 1 16.4622 48.1546 12.3848 
394 1 1 16.4762 47.3737 13.091 
395 1 1 16.3767 46.5038 13.8144 
396 1 1 16.1664 45.7893 14.5054 
397 1 1 12.2697 51.92 9.50197 
398 1 1 13.1035 51.3399 9.53361 
399 1 1 6.75875 51.6014 15.9137 
400 1 1 7.10868 50.9541 16.5311 
401 1 1 7.45578 50.2076 17.0618 
402 1 1 15.8663 45.0379 15.1461 
403 1 1 8.08989 49.4755 17.5396 
404 1 1 15.4124 45.1614 15.8812 
405 1 1 14.8744 45.4763 16.6597 
406 1 1 14.1476 45.7502 17.3608 
407 1 1 8.67304 48.9476 18.0462 
408 1 1 13.4857 46.1421 17.9589 
409 1 1 12.7796 46.6527 18.4772 
410 1 1 11.9337 47.0405 18.7161 
411 1 1 9.39822 48.4684 18.4207 
412 1 1 10.2237 48.044 18.6319 
413 1 1 11.0529 47.4809 18.8136 
414 1 1 8.43457 53.0464 11.2309 
415 1 1 9.06815 52.7062 10.6327 
416 1 1 6.73168 52.0818 14.1852 
417 1 1 6.75447 51.298 14.9014 
418 1 1 7.79394 52.7763 11.7165 
419 1 1 7.35319 52.044 12.1292 
420 1 1 6.95912 51.7267 12.9841 
421 1 1 9.72601 52.3628 10.1135 
422 1 1 10.5053 51.9899 9.68966 
423 1 1 11.3669 51.5986 9.41236 
424 1 1 13.8615 50.595 9.63319 
425 1 1 14.6292 49.8185 9.94237 
426 1 1 15.2864 49.0451 10.3141 
427 1 1 15.8273 48.4348 10.9096 
428 1 1 16.1806 47.7742 11.5476 
429 1 1 16.1984 44.8489 14.2576 
430 1 1 16.4409 47.132 12.1682 
431 1 1 16.459 46.4186 12.7991 
432 1 1 16.3719 45.5581 13.5747 
433 1 1 12.2458 51.0115 9.26625 
434 1 1 13.0924 50.3476 9.24185 
435 1 1 6.79584 50.7026 15.661 
436 1 1 7.13638 50.0581 16.2423 
437 1 1 7.5689 49.3048 16.8459 
438 1 1 15.919 44.0476 14.8008 
439 1 1 15.356 44.2206 15.6525 
440 1 1 8.07242 48.6461 17.2962 
441 1 1 14.792 44.5383 16.3755 
442 1 1 14.2513 44.7759 17.0443 
443 1 1 13.4669 45.111 17.7078 
444 1 1 8.7068 48.037 17.8278 
445 1 1 12.7061 45.6146 18.2532 
446 1 1 11.9725 46.0658 18.5437 
447 1 1 11.0423 46.4635 18.6059 
448 1 1 9.41274 47.4932 18.2277 
449 1 1 10.2402 47.0166 18.4502 
450 1 1 8.38958 52.2564 11.0087 
451 1 1 9.00398 51.8244 10.3848 
452 1 1 6.74519 51.0326 13.8566 
453 1 1 6.72014 50.4054 14.6599 
454 1 1 7.69632 51.7579 11.4428 
455 1 1 7.22432 51.2166 12.0416 
456 1 1 6.9054 50.6495 12.8765 
457 1 1 9.6673 51.461 9.84813 
458 1 1 10.474 51.0876 9.42262 
459 1 1 11.354 50.6202 9.14594 
460 1 1 13.906 49.6512 9.3747 
461 1 1 14.5997 48.8463 9.65282 
462 1 1 15.2237 48.1759 10.0989 
463 1 1 15.7091 47.539 10.6255 
464 1 1 16.1683 46.9213 11.1794 
465 1 1 16.2315 43.8955 13.9432 
466 1 1 16.3751 44.6332 13.3406 
467 1 1 16.4102 46.2163 11.7868 
468 1 1 16.4658 45.5578 12.5936 
469 1 1 12.2523 49.9581 9.04427 
470 1 1 13.0985 49.3586 9.01086 
471 1 1 6.85164 49.7524 15.3274 
472 1 1 7.16738 49.0826 15.9527 
473 1 1 7.50659 48.3276 16.495 
474 1 1 15.8443 43.1105 14.539 
475 1 1 15.3515 43.3049 15.3461 
476 1 1 14.7385 43.5797 16.1362 
477 1 1 8.01651 47.7103 17.116 
478 1 1 14.118 43.8452 16.7809 
479 1 1 13.392 44.2648 17.428 
480 1 1 12.6695 44.6393 17.9387 
481 1 1 8.62998 47.0905 17.6332 
482 1 1 11.8554 45.0776 18.2664 
483 1 1 10.994 45.487 18.3225 
484 1 1 10.1083 45.9965 18.2024 
485 1 1 9.34933 46.5196 18.0378 
486 1 1 8.24219 51.3157 10.7003 
487 1 1 8.91885 50.9164 10.0971 
488 1 1 6.76059 50.084 13.6311 
489 1 1 6.69436 49.4363 14.3501 
490 1 1 7.64592 50.8254 11.2801 
491 1 1 7.22983 50.2942 11.8782 
492 1 1 6.91598 49.6985 12.5628 
493 1 1 9.61328 50.469 9.57857 
494 1 1 10.486 50.1418 9.14194 
495 1 1 11.2969 49.6464 8.91953 
496 1 1 16.1832 42.9433 13.6523 
497 1 1 13.8932 48.6498 9.16176 
498 1 1 14.5263 47.861 9.36403 
499 1 1 15.1584 47.2175 9.73653 
500 1 1 15.7373 46.5809 10.2604 
501 1 1 16.1339 45.8946 10.8632 
502 1 1 16.4151 43.6938 12.9308 
503 1 1 16.49 44.5464 12.342 
504 1 1 16.3838 45.2457 11.6397 
505 1 1 12.1974 48.9671 8.76106 
506 1 1 13.0888 48.3156 8.77866 
507 1 1 15.8045 42.199 14.2413 
508 1 1 6.85854 48.7435 15.0952 
509 1 1 7.09416 48.0667 15.7122 
510 1 1 7.4879 47.3275 16.3288 
511 1 1 15.3443 42.3043 15.0977 
512 1 1 14.7748 42.5972 15.8114 
513 1 1 14.1195 42.8617 16.4719 
514 1 1 7.96893 46.6922 16.8642 
515 1 1 13.3702 43.3372 17.1262 
516 1 1 12.6868 43.6874 17.6264 
517 1 1 11.8136 44.146 18.0016 
518 1 1 8.58015 46.1101 17.4203 
519 1 1 10.9443 44.5376 18.1533 
520 1 1 10.1084 45.036 18.015 
521 1 1 9.25644 45.5285 17.7635 
522 1 1 8.17076 50.4134 10.4773 
523 1 1 8.82954 49.9552 9.89753 
524 1 1 6.68026 49.1247 13.2295 
525 1 1 6.6363 48.5119 14.0428 
526 1 1 7.59366 49.8649 11.0161 
527 1 1 7.16506 49.3689 11.6024 
528 1 1 6.90703 48.7016 12.251 
529 1 1 9.63127 49.6002 9.24407 
530 1 1 10.4191 49.1864 8.8665 
531 1 1 11.2983 48.6438 8.60488 
532 1 1 16.2254 41.9381 13.4268 
533 1 1 16.3965 42.7414 12.7676 
534 1 1 13.8152 47.6252 8.84089 
535 1 1 14.5002 46.914 9.06325 
536 1 1 15.197 46.2784 9.39788 
537 1 1 15.7415 45.6725 9.97124 
538 1 1 16.1235 44.9404 10.693 
539 1 1 16.4646 43.5424 11.9097 
540 1 1 16.3318 44.3048 11.3336 
541 1 1 12.1907 47.9313 8.48978 
542 1 1 12.9739 47.3098 8.41015 
543 1 1 15.7167 41.1947 14.053 
544 1 1 15.2374 41.3969 14.872 
545 1 1 6.79261 47.842 14.8269 
546 1 1 7.06167 47.0847 15.5068 
547 1 1 7.35011 46.388 16.1158 
548 1 1 14.6769 41.5652 15.6307 
549 1 1 14.0557 41.9049 16.2125 
550 1 1 13.3793 42.3648 16.7877 
551 1 1 7.8918 45.6614 16.6707 
552 1 1 12.6235 42.7547 17.3402 
553 1 1 11.7603 43.196 17.7089 
554 1 1 10.8024 43.6178 17.8164 
555 1 1 8.5136 45.0941 17.1917 
556 1 1 10.0049 44.1214 17.7775 
557 1 1 9.28998 44.57 17.5457 
558 1 1 8.15796 49.4227 10.2038 
559 1 1 8.86934 49.0084 9.61422 
560 1 1 6.63031 48.1949 13.0192 
561 1 1 6.62002 47.4887 13.9503 
562 1 1 7.53055 48.9149 10.7991 
563 1 1 7.09305 48.3526 11.3954 
564 1 1 6.86682 47.6923 12.1171 
565 1 1 9.62529 48.6871 9.0575 
566 1 1 10.4196 48.2238 8.63505 
567 1 1 11.1697 47.6776 8.39358 
568 1 1 16.1874 40.9538 13.2805 
569 1 1 16.4441 41.7582 12.6202 
570 1 1 16.4224 42.5318 11.7755 
571 1 1 13.7826 46.7084 8.54266 
572 1 1 14.4912 45.9951 8.78787 
573 1 1 15.1727 45.2716 9.23798 
574 1 1 15.6825 44.6169 9.88478 
575 1 1 16.0239 43.9109 10.4601 
576 1 1 16.3072 43.2061 11.026 
577 1 1 12.0711 46.9773 8.32108 
578 1 1 12.8674 46.387 8.18077 
579 1 1 15.7959 40.2271 13.9327 
580 1 1 15.227 40.4163 14.7303 
581 1 1 14.6197 40.6589 15.4414 
582 1 1 6.78225 46.8866 14.6406 
583 1 1 6.95556 46.0648 15.2915 
584 1 1 7.30425 45.4167 15.9498 
585 1 1 13.9402 40.9159 16.0709 
586 1 1 13.2731 41.3812 16.5557 
587 1 1 12.4947 41.8733 17.0007 
588 1 1 7.88027 44.7304 16.5035 
589 1 1 11.6843 42.2843 17.3901 
590 1 1 10.7567 42.7332 17.566 
591 1 1 9.88512 43.1678 17.5182 
592 1 1 8.40976 44.0996 16.9549 
593 1 1 9.20035 43.5935 17.2808 
594 1 1 8.10044 48.4194 10.002 
595 1 1 8.81566 48.056 9.35155 
596 1 1 6.63622 47.2504 12.8766 
597 1 1 6.59972 46.5911 13.7096 
598 1 1 7.49656 47.8811 10.5114 
599 1 1 7.1272 47.3367 11.118 
600 1 1 6.84049 46.7823 11.9729 
601 1 1 9.58515 47.6679 8.82656 
602 1 1 10.3047 47.1273 8.4292 
603 1 1 11.0898 46.6675 8.15966 
604 1 1 16.2456 39.9451 13.0803 
605 1 1 15.8624 39.208 13.6897 
606 1 1 16.2058 39.1227 12.8524 
607 1 1 16.4389 40.8231 12.3952 
608 1 1 16.4685 41.5741 11.5532 
609 1 1 16.3247 42.2491 10.8197 
610 1 1 13.6905 45.7184 8.31215 
611 1 1 14.4357 45.0485 8.61615 
612 1 1 15.1072 44.2616 9.10116 
613 1 1 15.6001 43.6743 9.63234 
614 1 1 16.0208 42.9265 10.1622 
615 1 1 11.9659 46.0701 8.02709 
616 1 1 12.7944 45.4611 7.95412 
617 1 1 15.3031 39.4485 14.4438 
618 1 1 14.6644 39.6432 15.2817 
619 1 1 13.9538 39.9627 15.8678 
620 1 1 6.6664 45.9088 14.4144 
621 1 1 6.92884 45.1832 15.1097 
622 1 1 7.25042 44.4962 15.6734 
623 1 1 13.1893 40.3937 16.4164 
624 1 1 12.4613 40.8589 16.7821 
625 1 1 11.678 41.3067 17.0711 
626 1 1 7.67837 43.8207 16.2 
627 1 1 10.7792 41.7449 17.2769 
628 1 1 9.88983 42.2093 17.2561 
629 1 1 8.97418 42.6561 17.0106 
630 1 1 8.34217 43.2341 16.7301 
631 1 1 15.3515 38.4393 14.2485 
632 1 1 15.7837 38.1246 13.3889 
633 1 1 8.11182 47.5454 9.65613 
634 1 1 8.82046 47.0173 9.1165 
635 1 1 6.54829 46.2585 12.6356 
636 1 1 6.4996 45.6784 13.4377 
637 1 1 7.52429 46.8928 10.2038 
638 1 1 6.98334 46.4016 10.9735 
639 1 1 6.70329 45.8612 11.675 
640 1 1 9.50143 46.6798 8.69128 
641 1 1 10.2675 46.1557 8.25677 
642 1 1 11.0866 45.6862 7.89785 
643 1 1 16.3879 39.8088 12.1214 
644 1 1 16.1141 38.2754 12.4487 
645 1 1 16.3782 38.9206 11.8767 
646 1 1 16.4219 40.6186 11.3666 
647 1 1 16.2731 41.2955 10.6787 
648 1 1 15.9293 41.9597 9.91041 
649 1 1 13.601 44.8251 8.06896 
650 1 1 14.3854 44.0316 8.43444 
651 1 1 15.051 43.3392 8.82268 
652 1 1 15.4828 42.6942 9.35905 
653 1 1 11.9739 45.0603 7.78587 
654 1 1 12.7584 44.5064 7.72977 
655 1 1 14.7759 38.7511 15.033 
656 1 1 13.9562 38.9406 15.6866 
657 1 1 13.2558 39.4173 16.1613 
658 1 1 6.62124 44.9504 14.1323 
659 1 1 6.86131 44.2843 14.7719 
660 1 1 7.19811 43.4963 15.3811 
661 1 1 12.381 39.8115 16.6062 
662 1 1 11.5431 40.3892 16.8221 
663 1 1 10.6914 40.763 16.9285 
664 1 1 7.67289 42.8844 15.927 
665 1 1 9.87187 41.2336 16.9227 
666 1 1 9.08166 41.7371 16.7578 
667 1 1 8.26138 42.1829 16.3806 
668 1 1 14.71 37.8282 14.8096 
669 1 1 15.2836 37.4683 14.0573 
670 1 1 15.894 37.5223 12.8089 
671 1 1 16.1121 37.5622 12.0769 
672 1 1 15.5829 37.084 13.3771 
673 1 1 8.05743 46.4827 9.54383 
674 1 1 8.7397 46.021 8.9746 
675 1 1 6.5062 45.2548 12.3755 
676 1 1 6.47182 44.7013 13.1833 
677 1 1 7.33827 45.9201 10.1149 
678 1 1 6.89421 45.3635 10.7739 
679 1 1 6.59567 44.8249 11.4451 
680 1 1 9.46801 45.692 8.46176 
681 1 1 10.191 45.1347 7.99605 
682 1 1 11.0253 44.7714 7.7201 
683 1 1 16.3836 39.6632 11.0907 
684 1 1 16.2712 38.0517 11.5148 
685 1 1 16.3279 38.746 10.8657 
686 1 1 16.147 40.4099 10.3281 
687 1 1 15.845 41.1303 9.68357 
688 1 1 15.4036 41.7573 9.07448 
689 1 1 13.5344 43.8934 7.88522 
690 1 1 14.3002 43.1392 8.15189 
691 1 1 14.8978 42.426 8.5464 
692 1 1 11.8961 44.1122 7.60926 
693 1 1 12.7531 43.4961 7.50978 
694 1 1 13.9757 38.0638 15.4334 
695 1 1 13.1608 38.4484 15.9183 
696 1 1 12.3854 38.955 16.3636 
697 1 1 6.55937 44.0392 13.8398 
698 1 1 6.7876 43.3331 14.5665 
699 1 1 7.08709 42.5551 15.1386 
700 1 1 11.5109 39.3804 16.6383 
701 1 1 10.6113 39.8044 16.6956 
702 1 1 9.77924 40.2876 16.6257 
703 1 1 7.63027 41.8603 15.7888 
704 1 1 9.00954 40.777 16.505 
705 1 1 8.28631 41.2422 16.2077 
706 1 1 13.9624 37.1412 15.1718 
707 1 1 14.576 36.74 14.6281 
708 1 1 15.1147 36.3562 13.8985 
709 1 1 16.2245 37.0832 11.3101 
710 1 1 15.9028 36.7484 12.4265 
711 1 1 15.617 36.263 13.0638 
712 1 1 7.95651 45.5416 9.33767 
713 1 1 8.60226 45.1049 8.716 
714 1 1 6.37451 44.2835 12.1542 
715 1 1 6.33781 43.7348 12.9769 
716 1 1 7.32127 44.9486 9.85977 
717 1 1 6.83927 44.4565 10.522 
718 1 1 6.43594 43.8765 11.1441 
719 1 1 9.31768 44.7133 8.22388 
720 1 1 10.1325 44.2284 7.77078 
721 1 1 11.0106 43.7578 7.50987 
722 1 1 16.1745 39.439 10.1653 
723 1 1 16.2781 37.769 10.5701 
724 1 1 16.1826 38.4939 9.95303 
725 1 1 15.866 40.119 9.46055 
726 1 1 15.4285 40.7866 8.84576 
727 1 1 14.8575 41.4435 8.33527 
728 1 1 13.5093 42.886 7.63156 
729 1 1 14.2132 42.1909 7.89711 
730 1 1 11.89 43.1109 7.31081 
731 1 1 12.6855 42.5101 7.24061 
732 1 1 13.1738 37.4548 15.7006 
733 1 1 12.4205 37.985 16.105 
734 1 1 11.5362 38.4483 16.389 
735 1 1 6.47682 43.0269 13.7164 
736 1 1 6.74345 42.3364 14.3506 
737 1 1 7.08014 41.6001 14.9983 
738 1 1 10.5894 38.7841 16.4928 
739 1 1 9.76948 39.2554 16.3946 
740 1 1 9.03621 39.7289 16.2422 
741 1 1 7.63398 40.914 15.5302 
742 1 1 8.25197 40.2833 15.9128 
743 1 1 13.8467 36.0447 15.0564 
744 1 1 13.2009 36.5498 15.4529 
745 1 1 14.4239 35.699 14.5383 
746 1 1 13.7742 35.1039 14.8583 
747 1 1 16.2135 37.0159 10.3835 
748 1 1 14.8683 35.4076 13.9027 
749 1 1 16.1769 36.214 10.6533 
750 1 1 15.3563 35.5737 13.2544 
751 1 1 16.0075 36.1088 11.6475 
752 1 1 15.8077 35.803 12.4467 
753 1 1 7.91487 44.6175 9.01027 
754 1 1 8.53648 44.1509 8.42243 
755 1 1 6.33002 43.3613 11.9176 
756 1 1 6.32068 42.7781 12.6794 
757 1 1 7.25966 44.046 9.58934 
758 1 1 6.74922 43.5456 10.2069 
759 1 1 6.48724 42.9808 10.899 
760 1 1 9.31932 43.7254 7.93618 
761 1 1 10.1513 43.2595 7.55014 
762 1 1 11.027 42.7666 7.29785 
763 1 1 15.9291 39.1847 9.25853 
764 1 1 16.1366 37.5478 9.74605 
765 1 1 15.8882 38.1701 9.07352 
766 1 1 15.4436 39.8737 8.63499 
767 1 1 14.8571 40.478 8.05665 
768 1 1 14.1957 41.1839 7.68199 
769 1 1 13.478 41.8629 7.40582 
770 1 1 11.8818 42.1981 7.02779 
771 1 1 12.7329 41.5172 6.95984 
772 1 1 12.3583 37.0063 15.864 
773 1 1 11.6106 37.554 16.1952 
774 1 1 10.6284 37.9147 16.2155 
775 1 1 6.48332 42.0748 13.4257 
776 1 1 6.7014 41.4028 14.1184 
777 1 1 7.07249 40.6254 14.719 
778 1 1 9.74502 38.3661 16.1903 
779 1 1 8.96969 38.6756 15.9866 
780 1 1 8.30701 39.235 15.6874 
781 1 1 7.6236 39.9682 15.2253 
782 1 1 9.96638 37.4423 15.9636 
783 1 1 13.0651 35.5032 15.354 
784 1 1 12.3583 36.1034 15.697 
785 1 1 14.3967 34.6191 14.2684 
786 1 1 13.1303 34.6115 15.1402 
787 1 1 13.7237 34.2863 14.7284 
788 1 1 14.0714 33.643 14.3239 
789 1 1 16.0515 36.5147 9.60271 
790 1 1 16.1272 35.5259 9.9988 
791 1 1 15.0849 34.7595 13.4362 
792 1 1 16.0777 35.356 10.9908 
793 1 1 15.6102 34.9037 12.6396 
794 1 1 15.8804 35.0715 11.8146 
795 1 1 7.79673 43.6868 8.90484 
796 1 1 8.55321 43.2058 8.26992 
797 1 1 6.33232 42.3892 11.659 
798 1 1 6.3018 41.7864 12.4816 
799 1 1 7.16376 43.0984 9.41943 
800 1 1 6.73382 42.5743 10.0008 
801 1 1 6.4637 42.0114 10.7235 
802 1 1 9.27627 42.801 7.75186 
803 1 1 10.0532 42.3041 7.31628 
804 1 1 10.8839 41.8415 7.05159 
805 1 1 15.4896 38.9095 8.42427 
806 1 1 15.8264 37.1625 8.93179 
807 1 1 15.4753 37.8682 8.27617 
808 1 1 14.9116 39.4966 7.8702 
809 1 1 14.1602 40.1869 7.43427 
810 1 1 13.4645 40.857 7.09743 
811 1 1 11.8127 41.2311 6.81048 
812 1 1 12.6652 40.5451 6.74661 
813 1 1 11.597 36.5144 15.933 
814 1 1 10.8396 37.0159 16.0456 
815 1 1 6.46259 41.1161 13.1828 
816 1 1 6.64817 40.3517 13.9021 
817 1 1 6.99864 39.6319 14.4634 
818 1 1 9.03623 37.5958 15.7828 
819 1 1 8.2217 38.3038 15.4541 
820 1 1 7.52859 38.9937 15.0151 
821 1 1 10.1618 36.6525 15.9004 
822 1 1 9.45934 36.8323 15.7568 
823 1 1 11.6141 35.7049 15.8152 
824 1 1 12.2232 35.0198 15.5557 
825 1 1 12.4411 34.1519 15.2737 
826 1 1 14.7201 33.9037 13.7096 
827 1 1 13.0735 33.6244 14.8714 
828 1 1 13.6013 33.0121 14.429 
829 1 1 14.2469 32.9599 13.7815 
830 1 1 15.7366 36.1237 8.66136 
831 1 1 15.96 35.707 9.27064 
832 1 1 16.0448 34.9357 9.322 
833 1 1 16.1322 34.6646 10.287 
834 1 1 15.2901 34.0035 12.9379 
835 1 1 16.022 34.3668 11.1252 
836 1 1 15.7309 34.1683 12.0696 
837 1 1 7.72897 42.725 8.70779 
838 1 1 8.41856 42.2299 8.1165 
839 1 1 6.29258 41.3865 11.3554 
840 1 1 6.30916 40.8262 12.2692 
841 1 1 7.12682 42.1183 9.09847 
842 1 1 6.61591 41.5706 9.77842 
843 1 1 6.34513 40.9568 10.457 
844 1 1 9.17195 41.844 7.53497 
845 1 1 10.0029 41.3593 7.10728 
846 1 1 10.775 40.9615 6.77785 
847 1 1 14.9216 38.5625 7.66376 
848 1 1 15.4757 36.8485 8.18779 
849 1 1 15.0347 37.5461 7.64425 
850 1 1 14.1563 39.1993 7.22938 
851 1 1 13.364 39.7722 6.93524 
852 1 1 11.6175 40.3835 6.60552 
853 1 1 12.3479 39.7685 6.60169 
854 1 1 10.6878 35.9107 15.851 
855 1 1 6.41408 40.1125 13.0146 
856 1 1 6.59133 39.3337 13.6069 
857 1 1 8.71608 36.7147 15.4211 
858 1 1 6.99255 38.6645 14.2161 
859 1 1 8.13015 37.3642 15.2335 
860 1 1 7.49942 38.0857 14.755 
861 1 1 9.57544 35.9741 15.688 
862 1 1 8.81813 35.8943 15.3435 
863 1 1 11.0849 35.0245 15.6428 
864 1 1 11.5783 34.2217 15.4885 
865 1 1 12.0261 33.4887 15.2874 
866 1 1 12.4368 32.8495 15.0068 
867 1 1 14.9466 33.111 13.1221 
868 1 1 12.9909 32.568 14.628 
869 1 1 13.6091 32.3421 13.9703 
870 1 1 14.3368 32.1269 12.9599 
871 1 1 15.448 36.0335 7.992 
872 1 1 15.7607 35.1949 8.38731 
873 1 1 15.927 34.4068 8.79963 
874 1 1 16.0409 34.0596 9.61968 
875 1 1 16.0089 33.6945 10.4308 
876 1 1 15.4515 33.2434 12.2831 
877 1 1 15.8408 33.4579 11.3678 
878 1 1 7.68435 41.6977 8.44183 
879 1 1 8.30394 41.2884 7.75742 
880 1 1 6.21092 40.4439 11.1561 
881 1 1 6.20203 39.8578 12.0952 
882 1 1 6.99864 41.1467 8.90067 
883 1 1 6.58994 40.6123 9.58398 
884 1 1 6.30401 40.0438 10.2703 
885 1 1 9.05445 40.9244 7.26282 
886 1 1 9.89057 40.4108 6.86212 
887 1 1 10.7154 40.002 6.50243 
888 1 1 14.3006 38.0647 7.09242 
889 1 1 14.4816 37.1768 7.08735 
890 1 1 14.901 36.4609 7.42371 
891 1 1 13.5183 38.7421 6.7944 
892 1 1 12.8194 39.159 6.62475 
893 1 1 11.5141 39.4302 6.422 
894 1 1 12.1161 38.9997 6.41529 
895 1 1 10.079 35.1093 15.6 
896 1 1 6.25675 39.1441 12.7314 
897 1 1 6.49652 38.3787 13.358 
898 1 1 8.07994 36.3129 14.9095 
899 1 1 6.92348 37.6902 13.9963 
900 1 1 7.48229 37.0475 14.5012 
901 1 1 9.19054 35.1513 15.371 
902 1 1 8.40341 35.2711 15.021 
903 1 1 10.5399 34.2992 15.4041 
904 1 1 11.0944 33.4727 15.3741 
905 1 1 11.5662 32.5511 15.1183 
906 1 1 12.2258 32.1154 14.6714 
907 1 1 14.9958 32.3154 12.2418 
908 1 1 12.8392 31.7712 14.0723 
909 1 1 13.4943 31.6412 13.3231 
910 1 1 13.8128 31.3505 12.6388 
911 1 1 14.3867 31.5646 12.1407 
912 1 1 15.1862 35.4937 7.48351 
913 1 1 15.3453 34.764 7.57928 
914 1 1 15.6283 34.2076 8.09207 
915 1 1 15.7115 33.5992 8.7846 
916 1 1 15.7871 33.1393 9.60758 
917 1 1 15.695 32.8587 10.4957 