ITEM: TIMESTEP
100000000
ITEM: NUMBER OF ATOMS
94148
ITEM: BOX BOUNDS pp pp pp
0 62
0 62
0 62
ITEM: ATOMS id mol type x y z 
1 1 1 4.29305 31.3027 27.7796 
2 1 1 4.9682 30.7949 28.1974 
3 1 1 5.05437 31.6769 27.6949 
4 1 1 5.69212 31.1317 27.9821 
5 1 1 4.27769 32.1787 27.3018 
6 1 1 5.81086 32.1456 27.4583 
7 1 1 6.59446 31.5458 27.6865 
8 1 1 4.11258 30.5247 28.1446 
9 1 1 4.70157 29.8318 28.4651 
10 1 1 5.59655 30.208 28.4174 
11 1 1 6.35999 30.5617 28.1879 
12 1 1 7.18852 30.7895 28.0116 
13 1 1 3.42188 30.9822 27.5592 
14 1 1 3.59928 31.7004 27.2996 
15 1 1 3.48992 32.3322 26.8296 
16 1 1 5.01194 32.5715 27.1008 
17 1 1 4.23948 32.9378 26.6087 
18 1 1 7.50603 31.3996 27.5506 
19 1 1 7.36375 32.0694 27.0913 
20 1 1 6.62363 32.4176 27.0696 
21 1 1 5.86412 32.8837 26.8155 
22 1 1 2.80529 30.6211 27.2772 
23 1 1 3.3471 30.0299 27.9504 
24 1 1 3.93801 29.4394 28.3555 
25 1 1 4.46933 28.7559 28.5278 
26 1 1 5.37411 29.1138 28.6236 
27 1 1 6.27895 29.44 28.5371 
28 1 1 8.03209 30.8003 27.6382 
29 1 1 7.02041 29.7878 28.2786 
30 1 1 7.80229 30.0162 27.9599 
31 1 1 2.79879 31.5227 26.8038 
32 1 1 2.92968 32.4297 26.3642 
33 1 1 3.4733 33.041 26.143 
34 1 1 5.025 33.2824 26.3212 
35 1 1 4.16171 33.4545 25.7771 
36 1 1 8.14575 31.4731 27.0966 
37 1 1 8.10665 32.1915 26.649 
38 1 1 8.71559 30.8231 27.0356 
39 1 1 7.41215 32.7559 26.4986 
40 1 1 6.73044 33.1098 26.2788 
41 1 1 5.8537 33.4702 25.9285 
42 1 1 2.26417 30.7365 26.6806 
43 1 1 2.32901 29.8614 26.9886 
44 1 1 2.77179 29.539 27.5583 
45 1 1 3.27252 29.1672 27.9912 
46 1 1 3.63666 28.458 28.181 
47 1 1 4.14146 27.785 28.1708 
48 1 1 5.11453 28.1055 28.5391 
49 1 1 6.08532 28.49 28.5689 
50 1 1 6.95776 28.7512 28.3272 
51 1 1 8.54898 30.116 27.4693 
52 1 1 7.72937 29.1212 28.0877 
53 1 1 8.29654 29.4237 27.7403 
54 1 1 2.0498 31.3085 26.167 
55 1 1 1.65892 30.5738 25.8739 
56 1 1 2.28091 32.0785 26.0161 
57 1 1 2.72731 32.8491 25.7417 
58 1 1 1.78139 31.8672 25.3763 
59 1 1 3.33462 33.464 25.3277 
60 1 1 5.0082 33.7482 25.4339 
61 1 1 4.11161 33.8211 24.9201 
62 1 1 8.07956 32.6972 26.0207 
63 1 1 8.79348 31.5822 26.5371 
64 1 1 8.74355 32.1765 25.9453 
65 1 1 9.18226 30.0999 26.8177 
66 1 1 9.33832 30.9495 26.3656 
67 1 1 7.50188 33.1482 25.6724 
68 1 1 6.71098 33.5411 25.3682 
69 1 1 5.85444 33.7776 24.9495 
70 1 1 1.95354 29.8727 26.3557 
71 1 1 2.19712 29.0796 26.8627 
72 1 1 2.82297 28.4398 27.497 
73 1 1 3.3303 27.6225 27.7507 
74 1 1 4.00256 26.9957 27.8047 
75 1 1 4.84478 27.2737 28.2049 
76 1 1 5.81784 27.5003 28.3131 
77 1 1 6.74051 27.918 28.2349 
78 1 1 7.62887 28.1563 27.9526 
79 1 1 8.87653 29.3494 27.2394 
80 1 1 8.41906 28.4203 27.531 
81 1 1 9.47718 29.2963 26.5445 
82 1 1 1.47442 29.7323 25.4949 
83 1 1 1.47433 31.1255 25.2066 
84 1 1 1.35099 30.3706 25.0904 
85 1 1 2.04528 32.5199 25.1421 
86 1 1 2.53651 33.1459 24.8095 
87 1 1 1.53901 31.8725 24.6078 
88 1 1 3.3432 33.7129 24.4101 
89 1 1 4.91877 33.9947 24.4751 
90 1 1 4.03608 33.9794 23.9465 
91 1 1 8.38778 32.8954 25.2132 
92 1 1 9.31309 31.5992 25.7591 
93 1 1 9.1443 32.3286 25.1045 
94 1 1 9.78376 30.1059 26.0997 
95 1 1 9.85645 30.8944 25.5643 
96 1 1 7.52009 33.4843 24.8307 
97 1 1 6.67491 33.798 24.4636 
98 1 1 5.71757 34.076 23.9259 
99 1 1 1.71855 29.1046 26.0837 
100 1 1 2.05396 28.2087 26.5876 
101 1 1 2.54182 27.4571 27.0551 
102 1 1 3.10586 26.7269 27.2799 
103 1 1 4.70992 26.5821 27.8381 
104 1 1 4.06663 26.2652 27.4789 
105 1 1 5.58027 26.5496 27.8333 
106 1 1 6.59307 27.0626 27.8735 
107 1 1 7.41346 27.4133 27.7768 
108 1 1 8.06614 27.5768 27.4804 
109 1 1 10.063 29.2411 25.7646 
110 1 1 9.14847 28.4577 26.9131 
111 1 1 8.7047 27.537 27.0704 
112 1 1 9.78892 28.3861 26.1763 
113 1 1 1.14057 29.7528 24.6125 
114 1 1 1.30116 28.9629 25.1801 
115 1 1 1.10464 30.8915 24.2681 
116 1 1 0.90192 30.1267 23.7323 
117 1 1 1.86735 32.5369 24.1479 
118 1 1 2.49124 33.2469 23.8291 
119 1 1 1.41349 31.783 23.6439 
120 1 1 3.2977 33.6747 23.3901 
121 1 1 4.87398 34.0688 23.4593 
122 1 1 3.98807 33.8965 22.9733 
123 1 1 8.21406 33.2796 24.2083 
124 1 1 8.8327 32.8103 24.4741 
125 1 1 9.70391 31.6757 24.9086 
126 1 1 9.32022 32.2913 24.3106 
127 1 1 10.2707 30.0411 25.3327 
128 1 1 10.2651 30.8009 24.7791 
129 1 1 10.6056 29.3375 25.0403 
130 1 1 5.52151 34.1411 22.8781 
131 1 1 7.49209 33.6276 23.9312 
132 1 1 6.47369 34.0001 23.285 
133 1 1 1.5305 28.2339 25.7244 
134 1 1 1.88149 27.4034 26.1981 
135 1 1 3.52159 25.9895 26.938 
136 1 1 2.36261 26.7425 26.6046 
137 1 1 2.81637 26.0294 26.5246 
138 1 1 4.86479 25.9111 27.4005 
139 1 1 4.16315 25.5748 26.9211 
140 1 1 5.74463 25.6829 27.1866 
141 1 1 6.53055 26.2676 27.3411 
142 1 1 7.22053 26.7392 27.4211 
143 1 1 8.04531 26.7564 27.0753 
144 1 1 10.3524 28.4021 25.444 
145 1 1 9.38756 27.6525 26.5283 
146 1 1 8.99563 26.9689 26.6067 
147 1 1 10.0075 27.6316 25.7726 
148 1 1 0.989999 29.0933 24.2245 
149 1 1 1.15167 28.1983 24.6789 
150 1 1 1.00473 31.0116 23.1259 
151 1 1 0.739301 29.2947 23.4301 
152 1 1 0.721144 30.1509 22.7529 
153 1 1 1.85993 32.5669 23.2123 
154 1 1 2.55919 33.2213 22.7981 
155 1 1 1.41213 31.8027 22.7902 
156 1 1 3.3445 33.5533 22.3777 
157 1 1 4.72687 33.9943 22.5219 
158 1 1 4.06058 33.7755 22.149 
159 1 1 8.18772 33.3658 23.4459 
160 1 1 8.90555 32.7651 23.4906 
161 1 1 9.5822 32.0968 23.5536 
162 1 1 10.0364 31.4804 24.0233 
163 1 1 10.7335 30.039 24.5107 
164 1 1 10.6002 30.6826 24.0137 
165 1 1 10.8903 28.613 24.7473 
166 1 1 11.06 29.3352 24.3585 
167 1 1 6.15528 34.0871 22.4019 
168 1 1 5.42584 34.0566 21.9999 
169 1 1 7.52768 33.6737 22.9617 
170 1 1 6.91669 33.8353 22.3037 
171 1 1 1.39059 27.3755 25.2277 
172 1 1 1.75555 26.5825 25.593 
173 1 1 3.50352 25.4342 26.4024 
174 1 1 2.25077 25.967 25.7989 
175 1 1 2.87371 25.4729 25.942 
176 1 1 4.22745 24.9624 26.295 
177 1 1 4.99851 25.2275 26.8141 
178 1 1 5.76268 25.0098 26.5498 
179 1 1 6.60201 25.5152 26.7537 
180 1 1 7.30489 26.0644 26.9569 
181 1 1 7.97402 25.8884 26.4894 
182 1 1 8.66131 26.2662 26.4125 
183 1 1 10.6666 27.5646 25.0035 
184 1 1 11.1888 28.0612 24.2775 
185 1 1 9.52155 26.719 25.9107 
186 1 1 10.2115 26.9449 25.3148 
187 1 1 0.855024 28.3097 23.7363 
188 1 1 1.085 27.4111 24.2212 
189 1 1 1.0534 31.1187 22.2799 
190 1 1 0.903175 30.4763 21.7748 
191 1 1 0.677714 28.5034 23.0376 
192 1 1 0.601432 29.1301 22.5672 
193 1 1 0.737734 29.6975 22.0335 
194 1 1 2.05198 32.5023 22.2777 
195 1 1 2.66182 33.0435 21.8191 
196 1 1 1.54002 31.8662 21.7646 
197 1 1 3.60281 33.4547 21.4196 
198 1 1 4.62503 33.8044 21.5548 
199 1 1 8.30972 33.1776 22.6844 
200 1 1 8.88573 32.7303 22.5032 
201 1 1 9.52026 32.2234 22.7699 
202 1 1 10.0704 31.608 22.9641 
203 1 1 10.6203 30.8895 23.1338 
204 1 1 11.1429 29.997 23.507 
205 1 1 11.5177 28.8129 23.7453 
206 1 1 6.20226 33.8847 21.6054 
207 1 1 5.43076 33.7886 21.0961 
208 1 1 7.68677 33.4402 21.999 
209 1 1 6.93049 33.5796 21.3284 
210 1 1 1.42909 26.573 24.6814 
211 1 1 1.91764 25.8985 24.9523 
212 1 1 3.45658 24.93 25.6926 
213 1 1 2.58843 25.1971 25.0936 
214 1 1 4.15874 24.5061 25.4451 
215 1 1 4.94307 24.6114 26.0817 
216 1 1 11.6667 27.7376 23.6649 
217 1 1 11.2529 27.178 24.2378 
218 1 1 5.66548 24.4112 25.7191 
219 1 1 6.51671 24.7435 26.0286 
220 1 1 7.45622 25.223 26.1642 
221 1 1 8.38323 25.473 25.9599 
222 1 1 9.12497 25.8033 25.6886 
223 1 1 10.6715 26.6836 24.687 
224 1 1 9.99596 26.1119 25.1611 
225 1 1 1.29959 26.6808 23.7272 
226 1 1 0.872471 27.5694 23.0508 
227 1 1 1.23332 31.1812 21.216 
228 1 1 1.15155 30.4088 20.9956 
229 1 1 0.942089 29.713 21.3038 
230 1 1 0.668658 28.2726 22.2979 
231 1 1 0.731534 28.987 21.7337 
232 1 1 2.11038 32.3367 21.2947 
233 1 1 2.78884 32.6976 20.8772 
234 1 1 1.80442 31.6253 20.6972 
235 1 1 3.63139 33.012 20.4324 
236 1 1 4.47357 33.5301 20.7841 
237 1 1 8.42611 32.9864 21.9041 
238 1 1 9.13824 32.3529 21.7425 
239 1 1 9.9239 31.7316 22.0754 
240 1 1 10.5457 31.0475 22.3066 
241 1 1 11.141 30.2186 22.6062 
242 1 1 11.6205 29.2829 22.8374 
243 1 1 11.9935 28.3161 22.9177 
244 1 1 6.11842 33.5338 20.7025 
245 1 1 5.22065 33.337 20.2727 
246 1 1 7.78232 33.1089 21.1238 
247 1 1 6.96073 33.1927 20.4987 
248 1 1 1.6757 25.9778 24.0843 
249 1 1 2.13512 25.3939 24.2567 
250 1 1 3.36606 24.6544 24.8221 
251 1 1 2.76946 24.9369 24.2001 
252 1 1 4.25088 24.1778 24.5694 
253 1 1 4.94143 24.16 25.0943 
254 1 1 12.2366 27.3055 22.9681 
255 1 1 11.806 26.8002 23.5699 
256 1 1 11.2388 26.2315 24.0188 
257 1 1 5.73207 23.8386 24.9169 
258 1 1 6.4376 24.0847 25.2892 
259 1 1 7.12134 24.4578 25.5404 
260 1 1 7.97877 24.6384 25.3726 
261 1 1 8.80564 24.9879 25.216 
262 1 1 9.658 25.3376 24.9434 
263 1 1 10.5472 25.7381 24.4993 
264 1 1 1.67724 26.1025 23.2713 
265 1 1 1.31548 26.7002 22.7807 
266 1 1 1.01389 27.4478 22.0776 
267 1 1 1.68248 30.7869 20.3106 
268 1 1 1.37855 29.81 20.5298 
269 1 1 1.12448 28.9903 20.9156 
270 1 1 0.925591 28.203 21.4379 
271 1 1 2.45727 32.0355 20.405 
272 1 1 3.10225 32.4261 20.1577 
273 1 1 2.21861 31.3422 20.0216 
274 1 1 3.74964 32.4101 19.7332 
275 1 1 4.4356 33.0176 19.9353 
276 1 1 8.50766 32.6449 20.9283 
277 1 1 9.08532 32.1177 20.7826 
278 1 1 9.71855 31.7224 21.0777 
279 1 1 10.4085 31.2298 21.3316 
280 1 1 11.0176 30.4901 21.654 
281 1 1 11.5893 29.6791 21.9793 
282 1 1 12.1688 28.736 22.0639 
283 1 1 12.5115 27.8367 22.1667 
284 1 1 6.14012 33.136 19.9477 
285 1 1 5.36042 32.8716 19.5055 
286 1 1 7.77269 32.7731 20.272 
287 1 1 6.99222 32.8477 19.7145 
288 1 1 2.22891 25.3832 23.3522 
289 1 1 3.49772 24.4576 23.9653 
290 1 1 2.96555 24.763 23.4739 
291 1 1 12.7998 26.8703 22.1251 
292 1 1 4.31115 23.9685 23.6993 
293 1 1 5.01625 23.7671 24.2756 
294 1 1 12.3247 26.3431 22.8024 
295 1 1 11.7825 25.7532 23.3986 
296 1 1 11.0929 25.3319 23.8312 
297 1 1 5.91215 23.4748 24.1131 
298 1 1 6.52859 23.6109 24.6577 
299 1 1 7.46727 23.8866 24.8574 
300 1 1 8.45266 24.1826 24.67 
301 1 1 9.3094 24.574 24.5251 
302 1 1 10.2422 24.9078 24.2034 
303 1 1 1.39331 27.4071 21.2217 
304 1 1 1.82467 26.0512 22.5186 
305 1 1 1.57267 26.7072 21.8835 
306 1 1 2.3878 30.7358 19.5606 
307 1 1 1.89954 29.9785 19.8531 
308 1 1 1.6318 29.148 20.2032 
309 1 1 1.44961 28.1887 20.6533 
310 1 1 2.94491 31.6365 19.593 
311 1 1 3.83094 31.8382 19.1942 
312 1 1 4.6396 32.2562 19.1428 
313 1 1 8.58833 32.2244 20.0192 
314 1 1 9.37765 31.7796 20.124 
315 1 1 10.2403 31.2288 20.3525 
316 1 1 10.9424 30.6734 20.6438 
317 1 1 11.5582 29.9784 20.9522 
318 1 1 12.1178 29.2313 21.1813 
319 1 1 12.7494 28.2706 21.2887 
320 1 1 13.1101 27.3549 21.433 
321 1 1 6.25884 32.5919 19.2268 
322 1 1 5.60458 32.3322 18.8983 
323 1 1 7.77907 32.4205 19.3873 
324 1 1 7.02375 32.4418 19.0072 
325 1 1 2.38331 25.5251 22.352 
326 1 1 2.8533 25.0166 22.6766 
327 1 1 3.57933 24.3619 22.9721 
328 1 1 4.49224 23.7828 22.9672 
329 1 1 13.3143 26.4639 21.2948 
330 1 1 12.9146 25.9338 21.9627 
331 1 1 5.21663 23.4603 23.3768 
332 1 1 12.3272 25.381 22.5395 
333 1 1 11.6576 24.9003 23.0492 
334 1 1 10.8446 24.4462 23.5117 
335 1 1 6.13137 23.1631 23.3902 
336 1 1 6.96047 23.2425 23.8776 
337 1 1 7.98699 23.5367 23.9819 
338 1 1 8.93938 23.8328 23.9315 
339 1 1 9.88097 24.0646 23.7649 
340 1 1 3.00216 30.7597 19.1002 
341 1 1 1.93227 27.5134 20.3625 
342 1 1 2.02305 26.8136 20.8806 
343 1 1 2.2901 26.0178 21.5511 
344 1 1 2.52516 30.0658 19.2013 
345 1 1 2.22133 29.2077 19.4431 
346 1 1 2.01386 28.3436 19.9084 
347 1 1 2.40754 27.586 19.5809 
348 1 1 3.61927 31.1782 18.8708 
349 1 1 4.40814 31.457 18.6115 
350 1 1 5.29098 31.715 18.3918 
351 1 1 8.40563 31.9883 19.0821 
352 1 1 9.12127 31.668 19.2442 
353 1 1 9.95599 31.3052 19.4445 
354 1 1 10.716 30.7752 19.7044 
355 1 1 11.4025 30.1414 19.9484 
356 1 1 12.0211 29.4534 20.2671 
357 1 1 12.6414 28.7768 20.4617 
358 1 1 13.2949 27.9191 20.5985 
359 1 1 13.6573 27.0133 20.5844 
360 1 1 6.34502 31.955 18.3979 
361 1 1 7.64533 32.0095 18.4449 
362 1 1 2.91585 25.235 21.8389 
363 1 1 3.42975 24.596 22.0219 
364 1 1 4.17149 23.9163 22.1649 
365 1 1 4.97849 23.4179 22.4292 
366 1 1 13.8182 25.9987 20.533 
367 1 1 13.3992 25.4755 21.1767 
368 1 1 12.7356 24.9274 21.738 
369 1 1 5.81462 23.0637 22.6006 
370 1 1 12.0718 24.4845 22.2656 
371 1 1 11.3031 24.0324 22.7573 
372 1 1 10.4699 23.6403 23.1017 
373 1 1 6.72381 22.8406 22.9265 
374 1 1 7.6665 22.8449 23.2047 
375 1 1 8.58179 23.0258 23.3238 
376 1 1 9.55599 23.3099 23.3036 
377 1 1 3.27181 30.1311 18.5958 
378 1 1 2.44918 26.8424 20.1134 
379 1 1 2.50065 26.2477 20.6511 
380 1 1 3.026 25.543 20.8633 
381 1 1 2.89478 29.1781 18.7307 
382 1 1 2.5396 28.371 19.1527 
383 1 1 2.87178 27.5858 18.8687 
384 1 1 2.78155 26.9285 19.4072 
385 1 1 4.09753 30.6857 18.2267 
386 1 1 4.9885 31.0421 17.9454 
387 1 1 5.90836 31.2297 17.7253 
388 1 1 8.56732 31.605 18.4079 
389 1 1 9.52034 31.2348 18.5769 
390 1 1 10.3403 30.8212 18.7905 
391 1 1 11.1759 30.2429 18.963 
392 1 1 11.9187 29.6194 19.3033 
393 1 1 12.628 29.0228 19.5023 
394 1 1 13.2308 28.3828 19.6932 
395 1 1 13.8142 27.4746 19.7896 
396 1 1 14.2087 26.542 19.8591 
397 1 1 6.94445 31.4305 17.6534 
398 1 1 7.96987 31.4363 17.7219 
399 1 1 3.46974 24.8716 21.013 
400 1 1 4.06371 24.1622 21.3217 
401 1 1 4.75265 23.5724 21.4735 
402 1 1 14.4151 25.5502 19.8361 
403 1 1 5.59464 22.9977 21.7498 
404 1 1 13.8855 25.0108 20.4621 
405 1 1 13.2208 24.387 21.0031 
406 1 1 12.4773 24.019 21.5586 
407 1 1 6.44839 22.6236 22.0298 
408 1 1 11.7211 23.6198 21.9852 
409 1 1 10.9175 23.1766 22.3243 
410 1 1 10.0475 22.8072 22.6078 
411 1 1 7.28287 22.3838 22.2949 
412 1 1 8.22124 22.3985 22.5113 
413 1 1 9.15287 22.5289 22.6727 
414 1 1 3.4584 29.1294 18.1409 
415 1 1 3.91614 29.7507 17.8209 
416 1 1 3.07383 26.0577 19.8396 
417 1 1 3.60294 25.2315 20.0227 
418 1 1 3.1969 28.3374 18.3456 
419 1 1 3.3561 27.4039 18.2346 
420 1 1 3.31041 26.6137 18.6964 
421 1 1 4.63073 30.2373 17.5156 
422 1 1 5.48244 30.4976 17.2004 
423 1 1 6.40356 30.7625 17.1293 
424 1 1 9.03588 31.0895 17.767 
425 1 1 9.93284 30.8101 17.8637 
426 1 1 10.8967 30.2826 18.0339 
427 1 1 11.75 29.7569 18.3114 
428 1 1 12.4687 29.2385 18.5711 
429 1 1 14.7754 26.1458 19.1899 
430 1 1 13.2161 28.6907 18.7107 
431 1 1 13.8084 28.0128 18.906 
432 1 1 14.3875 27.1138 19.0544 
433 1 1 7.43223 30.9191 17.067 
434 1 1 8.44227 30.9539 17.0193 
435 1 1 4.10416 24.4732 20.3795 
436 1 1 4.64872 23.7586 20.5993 
437 1 1 5.31612 23.0446 20.8259 
438 1 1 14.8863 25.1269 19.1031 
439 1 1 14.4449 24.5699 19.6898 
440 1 1 6.08069 22.5421 21.0771 
441 1 1 13.8041 24.0087 20.2088 
442 1 1 13.0478 23.518 20.7345 
443 1 1 12.2518 23.1249 21.186 
444 1 1 6.91919 22.1302 21.3794 
445 1 1 11.446 22.757 21.5428 
446 1 1 10.6442 22.3697 21.8756 
447 1 1 9.75103 22.0235 21.944 
448 1 1 7.85772 21.9455 21.6558 
449 1 1 8.8546 21.9106 21.8541 
450 1 1 3.80757 28.7473 17.5673 
451 1 1 4.4152 29.3332 17.1514 
452 1 1 3.69964 25.6262 18.975 
453 1 1 4.12064 24.8251 19.4228 
454 1 1 3.78253 27.8179 17.6118 
455 1 1 3.76747 26.8722 17.7675 
456 1 1 3.89759 26.0187 18.0663 
457 1 1 5.20579 29.7154 16.7777 
458 1 1 6.03655 30.069 16.4907 
459 1 1 6.96842 30.2972 16.4649 
460 1 1 9.47793 30.6551 16.9862 
461 1 1 10.5064 30.38 17.1975 
462 1 1 11.4798 29.9463 17.3147 
463 1 1 12.3054 29.4541 17.5275 
464 1 1 13.0903 28.9117 17.7604 
465 1 1 15.2554 25.5553 18.4099 
466 1 1 14.9821 26.6092 18.3925 
467 1 1 13.8152 28.2629 17.999 
468 1 1 14.4409 27.4926 18.184 
469 1 1 8.04531 30.4232 16.2726 
470 1 1 9.05631 30.4044 16.2361 
471 1 1 4.60188 24.0392 19.6257 
472 1 1 5.16098 23.2868 19.854 
473 1 1 5.84177 22.6504 20.1277 
474 1 1 15.4852 24.5976 18.3769 
475 1 1 14.9963 24.0604 18.9665 
476 1 1 14.3438 23.546 19.5198 
477 1 1 6.61217 22.0688 20.3791 
478 1 1 13.6111 23.1029 19.9618 
479 1 1 12.8713 22.6564 20.4012 
480 1 1 12.0665 22.2151 20.8236 
481 1 1 7.51778 21.6751 20.736 
482 1 1 11.1976 21.969 21.1378 
483 1 1 10.3065 21.5101 21.2321 
484 1 1 9.38957 21.3537 21.1687 
485 1 1 8.42102 21.4378 21.0757 
486 1 1 4.3296 28.3434 16.9725 
487 1 1 4.98003 28.8179 16.4951 
488 1 1 4.20902 25.1625 18.3673 
489 1 1 4.63362 24.3326 18.7092 
490 1 1 4.27772 27.3256 17.0976 
491 1 1 4.35764 26.3682 17.1865 
492 1 1 4.53662 25.4445 17.4383 
493 1 1 5.77256 29.2109 16.0772 
494 1 1 6.636 29.5911 15.8616 
495 1 1 7.5578 29.8112 15.6723 
496 1 1 15.8596 25.0609 17.7424 
497 1 1 10.1195 30.2693 16.4006 
498 1 1 11.0755 30.0052 16.4481 
499 1 1 12.0252 29.6247 16.5449 
500 1 1 12.8874 29.1185 16.7768 
501 1 1 13.6859 28.5416 17.0284 
502 1 1 15.5211 26.1006 17.6706 
503 1 1 15.0463 27.0416 17.5371 
504 1 1 14.4048 27.8539 17.3348 
505 1 1 8.62826 29.9252 15.5573 
506 1 1 9.72007 29.9419 15.6137 
507 1 1 16.1021 24.1494 17.7571 
508 1 1 5.11245 23.5185 18.8847 
509 1 1 5.73154 22.7242 19.2078 
510 1 1 6.47913 22.0703 19.4271 
511 1 1 15.6044 23.5757 18.3381 
512 1 1 15.0043 23.0403 18.9009 
513 1 1 14.2653 22.6187 19.3565 
514 1 1 7.24497 21.5865 19.8313 
515 1 1 13.5212 22.1512 19.8043 
516 1 1 12.6471 21.7199 20.1405 
517 1 1 11.6857 21.3379 20.4371 
518 1 1 8.1157 21.1392 20.1291 
519 1 1 10.8233 21.0092 20.4962 
520 1 1 9.95194 20.8135 20.4298 
521 1 1 8.97002 20.9086 20.3599 
522 1 1 4.92452 27.8683 16.3952 
523 1 1 5.60575 28.2647 15.8765 
524 1 1 4.85545 24.6362 17.7172 
525 1 1 5.23957 23.7436 17.9517 
526 1 1 4.87386 26.8687 16.5258 
527 1 1 4.94571 25.8648 16.5734 
528 1 1 5.10001 24.944 16.7036 
529 1 1 6.35672 28.7938 15.4984 
530 1 1 7.26477 29.1028 15.1499 
531 1 1 8.18386 29.3397 14.9395 
532 1 1 16.5314 24.671 17.063 
533 1 1 16.131 25.7036 17.0104 
534 1 1 10.759 29.8209 15.6086 
535 1 1 11.6913 29.5741 15.7164 
536 1 1 12.6328 29.1984 15.8103 
537 1 1 13.5036 28.6977 16.0182 
538 1 1 14.2944 28.0694 16.3355 
539 1 1 15.6249 26.6457 16.8101 
540 1 1 15.0154 27.4139 16.7258 
541 1 1 9.24803 29.544 14.9361 
542 1 1 10.2596 29.5376 14.843 
543 1 1 16.7667 23.7182 17.1028 
544 1 1 16.2628 23.0954 17.7047 
545 1 1 5.67404 22.9833 18.2133 
546 1 1 6.24549 22.2062 18.5764 
547 1 1 7.02577 21.5401 18.8311 
548 1 1 15.573 22.5774 18.3148 
549 1 1 14.8237 22.0653 18.7765 
550 1 1 14.0655 21.6374 19.2124 
551 1 1 7.78579 21.0339 19.2202 
552 1 1 13.2 21.1814 19.5121 
553 1 1 12.3051 20.8319 19.8126 
554 1 1 11.4427 20.463 19.8202 
555 1 1 8.63842 20.5667 19.4475 
556 1 1 10.5205 20.331 19.8162 
557 1 1 9.5388 20.306 19.6857 
558 1 1 5.5186 27.2912 15.8093 
559 1 1 6.24261 27.78 15.2884 
560 1 1 5.37736 24.0815 16.9862 
561 1 1 5.80112 23.1648 17.2481 
562 1 1 5.42082 26.251 15.8267 
563 1 1 5.54418 25.3274 15.8683 
564 1 1 5.66461 24.4238 15.9877 
565 1 1 6.96434 28.2948 14.8617 
566 1 1 7.81343 28.6808 14.4483 
567 1 1 8.75049 28.905 14.2558 
568 1 1 17.0548 24.2771 16.4112 
569 1 1 16.6681 25.2986 16.3726 
570 1 1 16.1843 26.2426 16.1552 
571 1 1 11.2311 29.4808 14.8409 
572 1 1 12.2991 29.2142 14.9302 
573 1 1 13.2356 28.795 15.1421 
574 1 1 14.129 28.3 15.3959 
575 1 1 14.943 27.7628 15.7678 
576 1 1 15.596 27.0681 15.9532 
577 1 1 9.77496 29.0582 14.1678 
578 1 1 10.813 29.1276 14.0948 
579 1 1 17.2725 23.3081 16.4331 
580 1 1 16.7993 22.6925 17.0548 
581 1 1 16.1502 22.1212 17.6858 
582 1 1 6.23055 22.3641 17.6663 
583 1 1 6.8575 21.6165 17.9395 
584 1 1 7.57777 20.968 18.2577 
585 1 1 15.4232 21.5245 18.1664 
586 1 1 14.5828 21.0429 18.5671 
587 1 1 13.7686 20.6656 18.9254 
588 1 1 8.33867 20.3801 18.4888 
589 1 1 12.9296 20.304 19.1449 
590 1 1 11.984 19.9025 19.1897 
591 1 1 11.0567 19.7957 19.1788 
592 1 1 9.14945 19.9826 18.7962 
593 1 1 10.0867 19.8199 19.0779 
594 1 1 6.04191 26.8267 15.1736 
595 1 1 6.73536 27.3656 14.5818 
596 1 1 5.90565 23.5817 16.2842 
597 1 1 6.24664 22.6568 16.6741 
598 1 1 6.01811 25.8515 15.0513 
599 1 1 6.05795 24.8905 15.161 
600 1 1 6.20949 23.8862 15.3811 
601 1 1 7.41858 27.8462 14.0979 
602 1 1 8.33093 28.1838 13.7956 
603 1 1 9.21305 28.3659 13.6173 
604 1 1 17.5849 23.7688 15.7182 
605 1 1 17.8175 22.7552 15.6793 
606 1 1 18.1128 23.3402 15.1226 
607 1 1 17.1647 24.8176 15.6642 
608 1 1 16.711 25.7732 15.4986 
609 1 1 16.2118 26.6411 15.2116 
610 1 1 11.8035 29.0763 14.0929 
611 1 1 12.8568 28.7685 14.1993 
612 1 1 13.8431 28.3227 14.4676 
613 1 1 14.7317 27.9432 14.7398 
614 1 1 15.5197 27.3126 15.0201 
615 1 1 10.3543 28.5619 13.5087 
616 1 1 11.3467 28.694 13.369 
617 1 1 17.3593 22.209 16.3597 
618 1 1 16.7405 21.6709 16.9801 
619 1 1 15.9825 21.1287 17.4953 
620 1 1 6.78351 21.8862 16.9854 
621 1 1 7.37282 21.1469 17.2673 
622 1 1 8.03297 20.441 17.5129 
623 1 1 15.1587 20.5904 17.9349 
624 1 1 14.3743 20.1117 18.2729 
625 1 1 13.5065 19.8504 18.4644 
626 1 1 8.79302 19.8557 17.8378 
627 1 1 12.6071 19.4466 18.4799 
628 1 1 11.641 19.3392 18.5128 
629 1 1 10.6334 19.3135 18.3626 
630 1 1 9.71274 19.4813 18.1334 
631 1 1 17.9524 21.7217 15.6073 
632 1 1 18.4664 22.3394 14.8967 
633 1 1 6.64324 26.4125 14.4526 
634 1 1 7.33435 26.8552 13.8336 
635 1 1 6.44059 22.9803 15.6875 
636 1 1 6.7687 22.113 16.0363 
637 1 1 6.61987 25.3563 14.4387 
638 1 1 6.6243 24.3556 14.5974 
639 1 1 6.7794 23.4316 14.78 
640 1 1 8.04782 27.384 13.3759 
641 1 1 8.90725 27.6029 13.0966 
642 1 1 9.84073 27.9802 12.9471 
643 1 1 17.7768 24.3343 15.0505 
644 1 1 18.6409 23.2385 14.3851 
645 1 1 18.2547 24.0164 14.335 
646 1 1 17.2293 25.3925 14.8008 
647 1 1 16.6985 26.1936 14.5351 
648 1 1 16.0884 26.8604 14.2452 
649 1 1 12.3459 28.5423 13.4369 
650 1 1 13.4416 28.2871 13.5836 
651 1 1 14.4213 27.8743 13.8531 
652 1 1 15.2977 27.4723 14.0744 
653 1 1 10.9146 28.1408 12.8105 
654 1 1 11.9011 28.1352 12.6676 
655 1 1 17.3321 21.2256 16.2738 
656 1 1 16.5815 20.6954 16.8581 
657 1 1 15.7231 20.2465 17.2668 
658 1 1 7.30643 21.3152 16.3638 
659 1 1 7.93834 20.5204 16.6501 
660 1 1 8.59773 19.91 16.896 
661 1 1 14.9152 19.7034 17.5991 
662 1 1 14.0342 19.333 17.7461 
663 1 1 13.1433 19 17.783 
664 1 1 9.39117 19.3483 17.1739 
665 1 1 12.1558 18.8587 17.8223 
666 1 1 11.2347 18.8845 17.7651 
667 1 1 10.3184 19.0257 17.4565 
668 1 1 17.8492 20.7528 15.581 
669 1 1 18.5118 21.2323 14.9365 
670 1 1 19.0062 22.5107 14.2324 
671 1 1 19.0802 23.0453 13.6935 
672 1 1 18.9868 21.7413 14.3387 
673 1 1 7.16985 25.8883 13.7757 
674 1 1 7.84076 26.3361 13.1823 
675 1 1 6.98643 22.4957 15.0448 
676 1 1 7.34927 21.6242 15.382 
677 1 1 7.06194 24.9012 13.7702 
678 1 1 7.09496 23.8596 13.9122 
679 1 1 7.27906 22.9692 14.1597 
680 1 1 8.56201 26.7676 12.7711 
681 1 1 9.41101 27.1571 12.424 
682 1 1 10.3731 27.5332 12.2373 
683 1 1 17.8206 24.8611 14.1723 
684 1 1 18.7565 23.7376 13.6127 
685 1 1 18.3366 24.4916 13.43 
686 1 1 17.3161 25.6824 13.8366 
687 1 1 16.6776 26.3824 13.5556 
688 1 1 15.8809 26.9945 13.3659 
689 1 1 12.9663 28.0832 12.8206 
690 1 1 14.0366 27.8197 12.9523 
691 1 1 15.0376 27.5017 13.1837 
692 1 1 11.4154 27.6803 12.0938 
693 1 1 12.5022 27.7153 12.0355 
694 1 1 17.1736 20.2867 16.1821 
695 1 1 16.3108 19.8127 16.6221 
696 1 1 15.4746 19.2385 16.8775 
697 1 1 7.81819 20.7499 15.748 
698 1 1 8.50225 20.076 15.8742 
699 1 1 9.21948 19.4503 16.1854 
700 1 1 14.6455 18.8864 17.0496 
701 1 1 13.6525 18.5582 17.093 
702 1 1 12.646 18.3874 17.106 
703 1 1 10.0142 18.9775 16.5128 
704 1 1 11.8151 18.4887 16.9824 
705 1 1 10.9261 18.6156 16.7237 
706 1 1 17.7007 19.7789 15.523 
707 1 1 18.3733 20.176 14.8749 
708 1 1 19.0327 20.6746 14.2396 
709 1 1 19.4229 23.3243 12.9367 
710 1 1 19.4676 22.2783 13.5185 
711 1 1 19.3888 21.4195 13.7155 
712 1 1 7.72076 25.3461 13.0802 
713 1 1 8.44398 25.7996 12.5586 
714 1 1 7.49175 22.0179 14.3336 
715 1 1 7.84046 21.0969 14.7553 
716 1 1 7.65224 24.2994 13.118 
717 1 1 7.67518 23.3492 13.2943 
718 1 1 7.81279 22.4829 13.4925 
719 1 1 9.12702 26.3399 12.1401 
720 1 1 9.98148 26.7228 11.7376 
721 1 1 10.9306 27.0478 11.5232 
722 1 1 17.8944 25.2791 13.1973 
723 1 1 18.8892 24.1511 12.7207 
724 1 1 18.3922 24.8004 12.484 
725 1 1 17.2955 25.9514 12.8488 
726 1 1 16.5028 26.5377 12.625 
727 1 1 15.5894 27.0551 12.4552 
728 1 1 13.5113 27.6144 12.0836 
729 1 1 14.5944 27.3848 12.2863 
730 1 1 12.0198 27.2232 11.3826 
731 1 1 13.0573 27.2477 11.3386 
732 1 1 16.866 19.3276 15.9924 
733 1 1 16.0387 18.8941 16.2452 
734 1 1 15.1859 18.4056 16.3937 
735 1 1 8.40221 20.3522 14.9652 
736 1 1 9.05498 19.6634 15.2659 
737 1 1 9.81876 19.0093 15.5004 
738 1 1 14.1962 18.1337 16.4727 
739 1 1 13.1842 17.938 16.4298 
740 1 1 12.2832 17.937 16.2451 
741 1 1 10.6438 18.514 15.8081 
742 1 1 11.4504 18.2224 16.0667 
743 1 1 18.2061 19.173 14.7725 
744 1 1 17.4981 18.8391 15.2844 
745 1 1 18.7571 19.6183 14.2148 
746 1 1 18.7073 18.6424 14.0143 
747 1 1 19.3651 23.8127 12.1746 
748 1 1 19.3288 19.9463 13.6555 
749 1 1 19.8429 23.1951 11.9472 
750 1 1 19.5683 20.6818 13.4136 
751 1 1 19.9055 22.5471 12.5401 
752 1 1 19.7781 21.5792 13.0506 
753 1 1 8.33326 24.8958 12.4728 
754 1 1 9.01267 25.357 11.9364 
755 1 1 8.03754 21.5833 13.7122 
756 1 1 8.40508 20.7744 14.0445 
757 1 1 8.26645 23.8571 12.4981 
758 1 1 8.2817 22.8653 12.6507 
759 1 1 8.40418 21.9793 12.7988 
760 1 1 9.72038 25.7911 11.5003 
761 1 1 10.4873 26.239 11.1181 
762 1 1 11.4939 26.5874 10.8451 
763 1 1 17.7667 25.5549 12.164 
764 1 1 18.9365 24.3759 11.8019 
765 1 1 18.2793 25.0635 11.5378 
766 1 1 17.0031 26.086 11.8626 
767 1 1 16.1426 26.6084 11.7469 
768 1 1 15.0999 26.9904 11.6118 
769 1 1 14.0838 27.1951 11.4359 
770 1 1 12.5906 26.717 10.7023 
771 1 1 13.6922 26.8813 10.7391 
772 1 1 16.6772 18.4375 15.5895 
773 1 1 15.811 18.0926 15.7376 
774 1 1 14.7222 17.7938 15.8688 
775 1 1 9.00645 19.8805 14.3658 
776 1 1 9.62823 19.1297 14.5693 
777 1 1 10.3306 18.4973 14.7841 
778 1 1 13.7855 17.5829 15.7993 
779 1 1 12.9366 17.4625 15.6255 
780 1 1 12.0005 17.6488 15.2976 
781 1 1 11.1537 18.0503 15.1097 
782 1 1 14.5289 17.1983 15.2769 
783 1 1 18.061 18.3259 14.5521 
784 1 1 17.2806 17.9225 14.937 
785 1 1 19.3635 19.0322 13.3844 
786 1 1 18.4989 17.8015 13.834 
787 1 1 19.0818 18.168 13.4282 
788 1 1 19.6555 18.26 12.8364 
789 1 1 19.4897 23.8752 11.1747 
790 1 1 20.2236 23.132 11.0459 
791 1 1 19.8461 19.9302 13.0406 
792 1 1 20.3873 22.4818 11.6629 
793 1 1 20.048 20.8276 12.6786 
794 1 1 20.2785 21.7114 12.3036 
795 1 1 8.88453 24.3596 11.8736 
796 1 1 9.6077 24.8706 11.2554 
797 1 1 8.6902 21.1475 13.0049 
798 1 1 9.02013 20.2317 13.4671 
799 1 1 8.91171 23.385 11.8733 
800 1 1 8.89044 22.3641 11.9415 
801 1 1 8.97753 21.5054 12.1167 
802 1 1 10.3305 25.3116 10.8254 
803 1 1 11.1518 25.7915 10.4239 
804 1 1 12.1011 26.0932 10.1374 
805 1 1 17.5317 25.6396 11.1629 
806 1 1 18.8728 24.5628 10.8573 
807 1 1 18.1716 25.0765 10.629 
808 1 1 16.6961 26.131 10.9792 
809 1 1 15.7712 26.5267 10.875 
810 1 1 14.6931 26.7466 10.6973 
811 1 1 13.206 26.3731 10.0347 
812 1 1 14.1752 26.4137 10.0234 
813 1 1 16.4042 17.6152 15.1409 
814 1 1 15.4653 17.3975 15.2703 
815 1 1 9.50318 19.4103 13.5742 
816 1 1 10.1563 18.6376 13.85 
817 1 1 10.9325 17.9401 14.0957 
818 1 1 13.6065 16.9578 14.808 
819 1 1 12.6144 17.2147 14.6523 
820 1 1 11.7571 17.4673 14.3221 
821 1 1 15.1515 16.8544 14.8091 
822 1 1 14.4321 16.7503 14.6204 
823 1 1 16.9375 17.2505 14.691 
824 1 1 17.726 17.2911 14.1166 
825 1 1 18.3754 17.0878 13.4938 
826 1 1 20.0829 19.1347 12.5855 
827 1 1 19.1306 17.2959 13.0424 
828 1 1 19.8324 17.5418 12.534 
829 1 1 20.2672 18.2402 12.2719 
830 1 1 19.4058 24.1493 10.2412 
831 1 1 19.9789 23.6447 10.4261 
832 1 1 20.4834 23.1091 10.254 
833 1 1 20.7091 22.4093 10.7813 
834 1 1 20.3674 20.0496 12.311 
835 1 1 20.8172 21.687 11.4399 
836 1 1 20.6161 20.859 11.9329 
837 1 1 9.46714 23.9092 11.1976 
838 1 1 10.2145 24.3545 10.6045 
839 1 1 9.21081 20.5966 12.3878 
840 1 1 9.53607 19.6702 12.6519 
841 1 1 9.45195 22.8989 11.1657 
842 1 1 9.42202 21.988 11.2474 
843 1 1 9.5197 21.0469 11.3934 
844 1 1 10.9293 24.8886 10.1391 
845 1 1 11.7363 25.3193 9.79538 
846 1 1 12.6605 25.6657 9.50129 
847 1 1 17.3161 25.6709 10.2454 
848 1 1 18.7499 24.6498 10.0117 
849 1 1 17.9225 25.1772 9.81481 
850 1 1 16.3115 26.022 10.1325 
851 1 1 15.2938 26.2419 9.9244 
852 1 1 13.6524 25.8764 9.38364 
853 1 1 14.5134 25.9278 9.36658 
854 1 1 16.0554 16.8101 14.624 
855 1 1 10.0106 18.8456 12.8984 
856 1 1 10.616 18.1355 13.1453 
857 1 1 14.0279 16.4219 14.0402 
858 1 1 11.4041 17.4371 13.3244 
859 1 1 13.1656 16.6605 13.9419 
860 1 1 12.2177 17.0372 13.6651 
861 1 1 15.0507 16.2924 14.1266 
862 1 1 14.5015 16.0086 13.5459 
863 1 1 16.9505 16.5661 14.0809 
864 1 1 17.7089 16.4876 13.5355 
865 1 1 18.4335 16.4387 13.0706 
866 1 1 19.1523 16.4527 12.6229 
867 1 1 20.6315 19.1996 11.9347 
868 1 1 19.7309 16.8215 12.3227 
869 1 1 20.3432 17.3209 11.86 
870 1 1 20.9775 18.2437 11.3265 
871 1 1 19.3371 24.2374 9.49969 
872 1 1 20.0488 23.6994 9.52967 
873 1 1 20.7401 22.9196 9.55113 
874 1 1 21.0623 22.2851 10.0186 
875 1 1 21.271 21.6061 10.5349 
876 1 1 20.9743 20.0028 11.5393 
877 1 1 21.1637 20.7504 11.1202 
878 1 1 9.98914 23.4024 10.5606 
879 1 1 10.773 23.914 9.87653 
880 1 1 9.70983 20.1247 11.6184 
881 1 1 10.0971 19.1822 11.9418 
882 1 1 9.95476 22.4278 10.4994 
883 1 1 9.9753 21.4921 10.5624 
884 1 1 10.0338 20.5534 10.7557 
885 1 1 11.4827 24.4145 9.4598 
886 1 1 12.287 24.8447 9.0677 
887 1 1 13.1707 25.1246 8.8441 
888 1 1 16.9613 25.5031 9.35482 
889 1 1 17.7614 25.0773 9.05143 
890 1 1 18.672 24.6417 9.09942 
891 1 1 16.0464 25.7438 9.33052 
892 1 1 15.3058 25.8256 9.15365 
893 1 1 14.0144 25.349 8.8006 
894 1 1 14.7846 25.4598 8.73642 
895 1 1 16.0392 16.1059 13.8625 
896 1 1 10.5897 18.3298 12.1602 
897 1 1 11.1407 17.6079 12.4845 
898 1 1 13.6894 16.0811 13.1162 
899 1 1 11.9405 16.9912 12.7298 
900 1 1 12.8069 16.5209 13.0058 
901 1 1 15.2968 15.7543 13.3778 
902 1 1 14.5386 15.6406 12.8195 
903 1 1 16.9403 15.9239 13.4018 
904 1 1 17.789 15.8376 12.9006 
905 1 1 18.6244 15.7937 12.3009 
906 1 1 19.4734 16.0441 11.9809 
907 1 1 21.3104 19.226 11.0105 
908 1 1 20.1203 16.531 11.5622 
909 1 1 20.7471 17.2024 11.1056 
910 1 1 21.1058 17.7426 10.5735 
911 1 1 21.3963 18.43 10.4001 
912 1 1 19.418 24.0578 8.73589 
913 1 1 19.9722 23.5483 8.54154 
914 1 1 20.5336 23.0737 8.81969 
915 1 1 21.0918 22.3801 9.08631 
916 1 1 21.4296 21.5743 9.64946 
917 1 1 21.5886 20.8473 10.1106 