ITEM: TIMESTEP
100000000
ITEM: NUMBER OF ATOMS
94148
ITEM: BOX BOUNDS pp pp pp
0 62
0 62
0 62
ITEM: ATOMS id mol type x y z 
1 1 1 12.6082 55.5374 16.1505 
2 1 1 13.1938 55.0264 16.5699 
3 1 1 13.4792 55.5266 15.728 
4 1 1 14.055 54.8652 16.0821 
5 1 1 12.7372 55.8829 15.2879 
6 1 1 14.2225 55.2952 15.1843 
7 1 1 14.8227 54.5817 15.5268 
8 1 1 12.2902 55.1115 16.8396 
9 1 1 12.7982 54.5255 17.3516 
10 1 1 13.7146 54.456 17.0097 
11 1 1 14.4266 54.244 16.5426 
12 1 1 15.1205 53.9052 16.186 
13 1 1 11.6826 55.5722 16.2239 
14 1 1 11.9845 55.894 15.6146 
15 1 1 11.9731 56.1682 14.8683 
16 1 1 13.5098 55.822 14.7848 
17 1 1 12.7028 56.204 14.3548 
18 1 1 15.4731 53.9797 15.464 
19 1 1 15.3849 54.4361 14.7391 
20 1 1 14.8056 55.0299 14.5563 
21 1 1 14.1935 55.5362 14.1749 
22 1 1 10.9223 55.5093 16.2405 
23 1 1 11.4149 55.0382 16.984 
24 1 1 11.8814 54.5424 17.5771 
25 1 1 12.359 53.9064 17.9488 
26 1 1 13.2722 53.8464 17.719 
27 1 1 14.1 53.6324 17.3332 
28 1 1 15.7817 53.3224 15.8092 
29 1 1 14.8497 53.3065 16.9893 
30 1 1 15.5541 52.9724 16.5332 
31 1 1 11.036 55.9836 15.4443 
32 1 1 11.2662 56.2354 14.55 
33 1 1 11.8542 56.3124 13.9233 
34 1 1 13.3823 55.9864 13.7591 
35 1 1 12.5332 56.2892 13.329 
36 1 1 15.9243 53.6873 14.9212 
37 1 1 15.9163 53.9658 14.1006 
38 1 1 16.3129 52.8962 15.2328 
39 1 1 15.3913 54.6146 13.7957 
40 1 1 14.8498 55.1147 13.5536 
41 1 1 14.1166 55.7028 13.16 
42 1 1 10.1547 55.6154 15.9319 
43 1 1 10.0447 55.133 16.5905 
44 1 1 10.5585 54.8623 17.0976 
45 1 1 11.0666 54.4734 17.5759 
46 1 1 11.3375 53.9135 18.0153 
47 1 1 11.7889 53.2457 18.4051 
48 1 1 12.7903 53.1448 18.288 
49 1 1 13.7014 52.8839 17.9641 
50 1 1 14.4661 52.6606 17.5914 
51 1 1 16.1155 52.4996 16.0636 
52 1 1 15.2075 52.4274 17.1773 
53 1 1 15.7695 52.1659 16.6837 
54 1 1 10.0181 55.8484 15.2227 
55 1 1 9.21571 55.4242 15.5734 
56 1 1 10.4747 56.1675 14.5472 
57 1 1 10.8977 56.2743 13.7751 
58 1 1 9.68522 55.9131 14.3492 
59 1 1 11.5568 56.35 13.1111 
60 1 1 13.2221 56.048 12.7304 
61 1 1 12.2015 56.1967 12.4796 
62 1 1 15.8426 54.1406 13.3313 
63 1 1 16.3576 53.1745 14.3347 
64 1 1 16.2732 53.4387 13.478 
65 1 1 16.3988 51.9765 15.4726 
66 1 1 16.5521 52.3282 14.5651 
67 1 1 15.4202 54.6108 12.9012 
68 1 1 14.7331 55.2112 12.5733 
69 1 1 13.8832 55.6646 12.2253 
70 1 1 9.35212 55.1182 16.3286 
71 1 1 9.60584 54.6171 16.9841 
72 1 1 10.2566 53.9953 17.7361 
73 1 1 10.766 53.3049 18.2557 
74 1 1 11.2065 52.5705 18.5887 
75 1 1 12.2536 52.4674 18.5964 
76 1 1 13.2176 52.1449 18.3743 
77 1 1 14.0586 51.925 18.0059 
78 1 1 14.8606 51.6759 17.5554 
79 1 1 16.1265 51.5693 16.2399 
80 1 1 15.5394 51.38 17.0279 
81 1 1 16.4949 50.9867 15.5303 
82 1 1 8.53985 54.7576 15.8719 
83 1 1 9.05215 55.5828 14.7091 
84 1 1 8.57806 55.1429 15.1482 
85 1 1 10.0549 56.0822 13.6842 
86 1 1 10.6499 56.1581 12.8884 
87 1 1 9.18918 55.6829 13.7671 
88 1 1 11.282 56.1444 12.1178 
89 1 1 12.8947 55.9014 11.9088 
90 1 1 11.8398 55.94 11.5118 
91 1 1 15.9348 53.8019 12.5379 
92 1 1 16.5099 52.6136 13.5987 
93 1 1 16.3067 52.8626 12.7654 
94 1 1 16.617 51.4071 14.7137 
95 1 1 16.6477 51.783 13.8177 
96 1 1 15.2296 54.4611 12.0153 
97 1 1 14.4763 55.0338 11.6781 
98 1 1 13.4485 55.3629 11.3172 
99 1 1 8.78884 54.4383 16.659 
100 1 1 9.13394 53.8744 17.4477 
101 1 1 9.67008 53.1879 18.0147 
102 1 1 10.1735 52.5266 18.4057 
103 1 1 11.7727 51.8408 18.7674 
104 1 1 10.9009 51.8004 18.6928 
105 1 1 12.5306 51.3561 18.7073 
106 1 1 13.592 51.2467 18.3549 
107 1 1 14.4443 51.0492 17.9614 
108 1 1 14.9929 50.7668 17.4992 
109 1 1 16.6281 50.4284 14.8173 
110 1 1 16.0014 50.7119 16.3439 
111 1 1 15.4403 50.3632 16.9788 
112 1 1 16.2632 50.0121 15.6486 
113 1 1 7.98561 54.6265 15.0415 
114 1 1 7.99431 54.1475 15.9544 
115 1 1 8.26795 55.0704 14.181 
116 1 1 7.56426 54.3091 14.2323 
117 1 1 9.63678 55.8281 12.9511 
118 1 1 10.2122 55.8209 12.0966 
119 1 1 8.67844 55.3075 13.0033 
120 1 1 10.9142 55.7356 11.3304 
121 1 1 12.5561 55.4528 11.022 
122 1 1 11.4921 55.4111 10.8034 
123 1 1 15.6675 53.669 11.6389 
124 1 1 15.9926 53.0779 12.0113 
125 1 1 16.5577 52.0464 12.9311 
126 1 1 16.2331 52.3548 12.0444 
127 1 1 16.749 50.8461 13.988 
128 1 1 16.7086 51.0607 13.1047 
129 1 1 16.7872 49.8712 14.1603 
130 1 1 13.0508 54.9915 10.4997 
131 1 1 14.9637 54.1924 11.2053 
132 1 1 13.9494 54.6374 10.6392 
133 1 1 8.2647 53.6009 16.7754 
134 1 1 8.7452 53.1184 17.505 
135 1 1 10.1586 51.638 18.5317 
136 1 1 9.18108 52.4067 17.9571 
137 1 1 9.46227 51.6846 18.2375 
138 1 1 11.512 51.0878 18.7931 
139 1 1 10.6381 51.0165 18.6341 
140 1 1 12.1432 50.3869 18.6702 
141 1 1 13.1483 50.4391 18.5237 
142 1 1 13.8812 50.5079 18.2224 
143 1 1 14.5457 50.1146 17.7001 
144 1 1 16.5355 49.4985 14.9287 
145 1 1 15.7249 49.8385 16.4401 
146 1 1 15.1836 49.6527 17.007 
147 1 1 16.0732 49.1249 15.7252 
148 1 1 7.479 53.9211 15.1287 
149 1 1 7.58518 53.4239 15.9985 
150 1 1 7.87046 54.6831 13.1966 
151 1 1 7.03967 53.551 14.4264 
152 1 1 7.20768 53.9485 13.4128 
153 1 1 9.24788 55.388 12.1733 
154 1 1 9.83299 55.3843 11.3819 
155 1 1 8.41462 54.8669 12.2652 
156 1 1 10.6034 55.1414 10.665 
157 1 1 12.0793 54.9879 10.3421 
158 1 1 11.2734 54.89 10.2737 
159 1 1 15.2741 53.4382 10.9418 
160 1 1 15.754 52.641 11.2125 
161 1 1 16.1853 51.8218 11.4637 
162 1 1 16.5093 51.3819 12.1661 
163 1 1 16.8146 50.1407 13.3275 
164 1 1 16.7161 50.4775 12.5354 
165 1 1 16.6833 48.9636 14.2024 
166 1 1 16.8585 49.3746 13.4506 
167 1 1 13.3442 54.3748 10.0112 
168 1 1 12.5139 54.4899 9.85428 
169 1 1 14.6556 53.6499 10.4185 
170 1 1 13.8987 53.7603 9.96286 
171 1 1 7.88961 52.7546 16.8285 
172 1 1 8.28046 52.1887 17.3784 
173 1 1 9.87058 50.9317 18.3706 
174 1 1 8.65772 51.5212 17.757 
175 1 1 9.16987 50.9503 18.0005 
176 1 1 10.3398 50.2213 18.3756 
177 1 1 11.2748 50.2755 18.5918 
178 1 1 11.8295 49.5563 18.4549 
179 1 1 12.7815 49.6363 18.3893 
180 1 1 13.6473 49.778 18.1612 
181 1 1 14.097 49.1881 17.7714 
182 1 1 14.6921 49.0797 17.287 
183 1 1 16.3603 48.4988 15.0303 
184 1 1 16.6404 48.1941 14.1633 
185 1 1 15.3989 48.8798 16.543 
186 1 1 15.9228 48.3841 15.7223 
187 1 1 7.09019 53.041 15.2761 
188 1 1 7.28329 52.4756 16.088 
189 1 1 7.65514 54.3115 12.472 
190 1 1 7.22496 53.6193 12.4339 
191 1 1 6.76407 52.7844 14.5405 
192 1 1 6.80076 53.1261 13.8124 
193 1 1 6.89517 53.2016 13.0085 
194 1 1 8.97468 54.8794 11.3991 
195 1 1 9.67444 54.7178 10.6595 
196 1 1 8.2383 54.338 11.4769 
197 1 1 10.5632 54.4654 9.98355 
198 1 1 11.5945 54.3425 9.76272 
199 1 1 15.0773 52.888 10.3739 
200 1 1 15.3857 52.2045 10.4111 
201 1 1 15.8939 51.6426 10.7127 
202 1 1 16.2805 51.011 11.1362 
203 1 1 16.6008 50.264 11.6841 
204 1 1 16.8724 49.5309 12.5282 
205 1 1 16.8486 48.4588 13.1817 
206 1 1 13.079 53.7924 9.50702 
207 1 1 12.1192 53.7048 9.34238 
208 1 1 14.3924 53.0044 9.82652 
209 1 1 13.5602 53.1328 9.39941 
210 1 1 7.6398 51.8641 16.6925 
211 1 1 8.05164 51.2501 17.1097 
212 1 1 9.46693 50.2026 17.9929 
213 1 1 8.59937 50.472 17.5138 
214 1 1 10.0008 49.5054 17.9907 
215 1 1 10.9004 49.4869 18.2577 
216 1 1 16.844 47.5705 13.6946 
217 1 1 16.4936 47.5299 14.584 
218 1 1 11.4425 48.7681 18.1439 
219 1 1 12.3519 48.7405 18.1801 
220 1 1 13.295 48.8115 18.0123 
221 1 1 14.1477 48.3759 17.5045 
222 1 1 14.8675 48.1762 17.0201 
223 1 1 16.0355 47.6322 15.4367 
224 1 1 15.5275 47.8343 16.1899 
225 1 1 7.16731 51.4776 15.9683 
226 1 1 6.774 52.0805 15.0992 
227 1 1 7.60693 53.7177 11.5914 
228 1 1 7.25675 53.0846 11.8438 
229 1 1 6.91856 52.7113 12.442 
230 1 1 6.58178 52.195 13.9895 
231 1 1 6.70584 52.4472 13.1584 
232 1 1 8.80121 54.2463 10.7491 
233 1 1 9.46772 54.005 10.0509 
234 1 1 8.15104 53.6436 10.8229 
235 1 1 10.0865 53.5652 9.48171 
236 1 1 10.9825 53.6719 9.4006 
237 1 1 14.8496 52.2168 9.81086 
238 1 1 15.2869 51.3232 9.86975 
239 1 1 15.9712 50.7272 10.2692 
240 1 1 16.4348 50.1008 10.7821 
241 1 1 16.8059 49.3077 11.4122 
242 1 1 17.0025 48.5009 12.0648 
243 1 1 16.9753 47.5783 12.6665 
244 1 1 12.6382 53.0468 9.10753 
245 1 1 11.5126 53.0908 9.04816 
246 1 1 14.0355 52.333 9.26495 
247 1 1 13.2012 52.3519 8.9552 
248 1 1 7.60437 50.9011 16.4919 
249 1 1 8.00401 50.3596 16.8247 
250 1 1 9.09499 49.5706 17.5989 
251 1 1 8.39822 49.6901 16.9848 
252 1 1 9.58832 48.7474 17.5533 
253 1 1 10.484 48.7419 17.9089 
254 1 1 16.8945 46.72 13.3163 
255 1 1 16.6209 46.7323 14.2317 
256 1 1 16.1491 46.774 15.1479 
257 1 1 11.0703 48.0114 17.8083 
258 1 1 11.9614 47.975 17.9433 
259 1 1 12.7064 48.0276 17.8829 
260 1 1 13.5127 47.7141 17.5989 
261 1 1 14.2765 47.42 17.1933 
262 1 1 15.0117 47.3139 16.6435 
263 1 1 15.6415 46.933 15.9227 
264 1 1 7.25378 50.62 15.8857 
265 1 1 6.93393 50.9964 15.2679 
266 1 1 6.60199 51.3135 14.3312 
267 1 1 7.64154 52.8325 10.9858 
268 1 1 7.07667 52.3121 11.7334 
269 1 1 6.77652 51.9029 12.4848 
270 1 1 6.55442 51.5909 13.3211 
271 1 1 8.71828 53.5246 10.1885 
272 1 1 9.30862 53.324 9.71854 
273 1 1 8.26274 52.9289 10.312 
274 1 1 9.61709 52.7199 9.30024 
275 1 1 10.5203 52.8523 9.08439 
276 1 1 14.4462 51.4424 9.22645 
277 1 1 14.8337 50.7455 9.11569 
278 1 1 15.4635 50.3038 9.40072 
279 1 1 16.1037 49.8449 9.8718 
280 1 1 16.5146 49.1499 10.4784 
281 1 1 16.9232 48.4655 11.0456 
282 1 1 17.1097 47.675 11.6664 
283 1 1 17.0603 46.6949 12.3011 
284 1 1 12.2006 52.3246 8.75056 
285 1 1 11.2847 52.2304 8.70307 
286 1 1 13.6639 51.597 8.80395 
287 1 1 12.6868 51.6727 8.50341 
288 1 1 7.70542 49.8567 16.1613 
289 1 1 8.78851 48.8971 17.0359 
290 1 1 8.21244 49.0952 16.5457 
291 1 1 16.9469 45.8197 12.9399 
292 1 1 9.39509 48.0157 17.0789 
293 1 1 10.1609 47.9378 17.4905 
294 1 1 16.6743 45.8043 13.8206 
295 1 1 16.3068 45.9035 14.7841 
296 1 1 15.7697 46.0202 15.5361 
297 1 1 10.8041 47.1919 17.4813 
298 1 1 11.5691 47.3436 17.6526 
299 1 1 12.5148 47.1187 17.5812 
300 1 1 13.4898 46.7563 17.3304 
301 1 1 14.4149 46.5406 16.8802 
302 1 1 15.1515 46.328 16.2618 
303 1 1 6.60645 50.7288 13.612 
304 1 1 7.1327 50.0869 15.3335 
305 1 1 6.82996 50.4038 14.4962 
306 1 1 7.96354 52.1797 10.3279 
307 1 1 7.35381 51.8236 11.0132 
308 1 1 6.93792 51.477 11.7479 
309 1 1 6.68264 51.0709 12.6376 
310 1 1 8.7703 52.5095 9.71401 
311 1 1 9.43285 51.9548 9.1893 
312 1 1 10.2511 51.9487 8.87788 
313 1 1 14.1203 50.7035 8.61002 
314 1 1 14.8482 50.032 8.73965 
315 1 1 15.5772 49.446 9.0509 
316 1 1 16.1411 48.8518 9.52355 
317 1 1 16.5705 48.2411 10.1157 
318 1 1 16.9829 47.4997 10.7182 
319 1 1 17.1987 46.6468 11.3531 
320 1 1 17.1728 45.8072 11.9824 
321 1 1 11.7672 51.5129 8.3537 
322 1 1 11.0056 51.4446 8.46237 
323 1 1 13.2034 50.9258 8.26373 
324 1 1 12.3397 51.0407 8.16666 
325 1 1 7.4458 49.3143 15.3618 
326 1 1 7.89426 48.828 15.8637 
327 1 1 8.57093 48.2281 16.4261 
328 1 1 9.13627 47.4325 16.6021 
329 1 1 17.0936 44.9997 12.5483 
330 1 1 16.752 44.8428 13.4456 
331 1 1 9.88964 47.0483 16.9867 
332 1 1 16.357 44.921 14.4209 
333 1 1 15.8203 45.1289 15.1915 
334 1 1 15.2188 45.3524 15.9195 
335 1 1 10.6006 46.483 17.1345 
336 1 1 11.5929 46.3869 17.3535 
337 1 1 12.7135 46.1449 17.2255 
338 1 1 13.6854 45.9565 17.0316 
339 1 1 14.4531 45.62 16.554 
340 1 1 8.25591 51.6181 9.86008 
341 1 1 6.77715 50.1828 12.7709 
342 1 1 6.87429 49.8388 13.6389 
343 1 1 7.16346 49.4131 14.5329 
344 1 1 7.74374 51.3416 10.3976 
345 1 1 7.23836 50.9093 11.091 
346 1 1 6.85 50.5606 11.8908 
347 1 1 6.9102 49.665 12.0685 
348 1 1 8.86921 51.461 9.41561 
349 1 1 9.55291 51.1934 8.99228 
350 1 1 10.332 50.8616 8.39062 
351 1 1 13.5396 50.2241 8.06597 
352 1 1 14.2208 49.7409 8.09798 
353 1 1 14.9607 49.2271 8.33766 
354 1 1 15.6576 48.5959 8.64961 
355 1 1 16.2245 47.9311 9.20185 
356 1 1 16.6732 47.2976 9.79814 
357 1 1 16.9975 46.595 10.3518 
358 1 1 17.2296 45.7034 11.0085 
359 1 1 17.3138 44.8686 11.6403 
360 1 1 11.4248 50.6388 8.07431 
361 1 1 12.6001 50.2162 7.80115 
362 1 1 7.59863 48.5341 15.0507 
363 1 1 8.13177 47.9616 15.4561 
364 1 1 8.66542 47.2338 15.9541 
365 1 1 9.28236 46.6502 16.4105 
366 1 1 17.2058 43.9804 12.2898 
367 1 1 16.9081 43.9489 13.1218 
368 1 1 16.4813 44.0708 13.9908 
369 1 1 9.98354 46.0741 16.7093 
370 1 1 15.9528 44.2415 14.7692 
371 1 1 15.2571 44.383 15.4971 
372 1 1 14.573 44.7301 16.1568 
373 1 1 10.8885 45.7447 16.9664 
374 1 1 11.899 45.4555 17.0381 
375 1 1 12.8634 45.2481 16.903 
376 1 1 13.7223 44.9877 16.6468 
377 1 1 8.21809 50.6839 9.71785 
378 1 1 6.88299 49.3491 12.8698 
379 1 1 7.01999 49.0476 13.5983 
380 1 1 7.30181 48.3388 14.1002 
381 1 1 7.52284 50.3298 10.43 
382 1 1 7.1254 50.027 11.2065 
383 1 1 7.13079 49.1091 11.453 
384 1 1 6.99615 48.8852 12.2009 
385 1 1 9.03029 50.5306 9.09332 
386 1 1 9.75682 50.2641 8.47505 
387 1 1 10.6491 50.0139 7.92796 
388 1 1 13.4036 49.5339 7.60045 
389 1 1 14.2722 48.8754 7.76577 
390 1 1 15.0596 48.308 8.01928 
391 1 1 15.7127 47.6277 8.35112 
392 1 1 16.3578 47.0006 8.85254 
393 1 1 16.8474 46.3203 9.38378 
394 1 1 17.096 45.6315 10.0008 
395 1 1 17.3028 44.7803 10.6687 
396 1 1 17.3481 43.8936 11.2807 
397 1 1 11.6999 49.683 7.54597 
398 1 1 12.5654 49.2414 7.26704 
399 1 1 7.64959 47.666 14.607 
400 1 1 8.17639 47.0112 15.1226 
401 1 1 8.77434 46.3831 15.611 
402 1 1 17.2955 43.0931 11.8413 
403 1 1 9.37937 45.7233 16.0552 
404 1 1 17.0298 43.0016 12.7562 
405 1 1 16.5667 43.1185 13.6264 
406 1 1 15.9917 43.2811 14.4086 
407 1 1 10.1821 45.2181 16.4069 
408 1 1 15.4041 43.5306 15.1299 
409 1 1 14.5516 43.8283 15.805 
410 1 1 13.7682 44.0338 16.2611 
411 1 1 11.0441 44.8814 16.6143 
412 1 1 12.0166 44.6163 16.6724 
413 1 1 12.8222 44.3167 16.4815 
414 1 1 7.8758 49.7991 9.90631 
415 1 1 8.47621 49.6749 9.28388 
416 1 1 7.12463 48.3213 12.9621 
417 1 1 7.39815 47.484 13.6208 
418 1 1 7.39763 49.3637 10.5308 
419 1 1 7.26032 48.5407 10.9122 
420 1 1 7.12657 48.0271 11.7302 
421 1 1 9.104 49.5571 8.67975 
422 1 1 9.91357 49.4571 7.99254 
423 1 1 10.8082 49.1853 7.50674 
424 1 1 13.472 48.6786 7.28752 
425 1 1 14.2905 48.0616 7.38607 
426 1 1 15.1302 47.3919 7.65559 
427 1 1 15.8075 46.7713 8.04835 
428 1 1 16.4589 46.0732 8.51464 
429 1 1 17.4594 42.9589 10.9427 
430 1 1 16.8847 45.3694 9.09166 
431 1 1 17.1812 44.6766 9.70892 
432 1 1 17.371 43.7872 10.2978 
433 1 1 11.6985 48.7951 7.11392 
434 1 1 12.6391 48.243 7.02201 
435 1 1 7.75513 46.802 14.2679 
436 1 1 8.29236 46.1174 14.7833 
437 1 1 8.85191 45.4973 15.251 
438 1 1 17.4568 42.0321 11.4277 
439 1 1 17.1741 42.1779 12.3366 
440 1 1 9.4522 44.9082 15.7042 
441 1 1 16.7094 42.1739 13.2281 
442 1 1 16.07 42.3326 14.0443 
443 1 1 15.3636 42.5647 14.7611 
444 1 1 10.2628 44.3675 16.0627 
445 1 1 14.69 42.899 15.3916 
446 1 1 13.8555 43.1527 15.8463 
447 1 1 12.9124 43.371 16.0883 
448 1 1 11.1617 43.9866 16.2202 
449 1 1 12.0405 43.7047 16.2478 
450 1 1 7.96624 49.0338 9.65099 
451 1 1 8.59101 48.7572 8.94551 
452 1 1 7.26943 47.2503 12.6166 
453 1 1 7.46582 46.6273 13.3163 
454 1 1 7.56672 48.349 10.1638 
455 1 1 7.33592 47.6891 10.7566 
456 1 1 7.23434 47.0739 11.5794 
457 1 1 9.22979 48.6991 8.18943 
458 1 1 9.97503 48.4961 7.57826 
459 1 1 10.7778 48.2364 7.13953 
460 1 1 13.5735 47.7219 6.91162 
461 1 1 14.3598 47.1194 7.08029 
462 1 1 15.1989 46.4611 7.38266 
463 1 1 15.9048 45.7945 7.72005 
464 1 1 16.5558 45.1618 8.20312 
465 1 1 17.5545 41.9534 10.5573 
466 1 1 17.5288 42.9006 9.97971 
467 1 1 17.0132 44.4679 8.76496 
468 1 1 17.3066 43.7309 9.33068 
469 1 1 11.6953 47.8268 6.90803 
470 1 1 12.6889 47.4056 6.80228 
471 1 1 7.85715 45.8724 13.9114 
472 1 1 8.35135 45.1781 14.4024 
473 1 1 8.91676 44.5275 14.9633 
474 1 1 17.5058 41.0588 11.1514 
475 1 1 17.1918 41.1977 12.045 
476 1 1 16.7897 41.2263 12.9091 
477 1 1 9.55481 43.9432 15.443 
478 1 1 16.1882 41.4526 13.6239 
479 1 1 15.4901 41.6504 14.3645 
480 1 1 14.6736 41.9628 15.0322 
481 1 1 10.4343 43.4694 15.721 
482 1 1 13.9144 42.1897 15.5474 
483 1 1 12.986 42.4098 15.7564 
484 1 1 12.1586 42.7281 15.834 
485 1 1 11.2631 43.1047 15.8122 
486 1 1 8.11158 48.0659 9.38614 
487 1 1 8.71576 47.9065 8.60542 
488 1 1 7.37492 46.3789 12.3073 
489 1 1 7.62515 45.6927 12.9186 
490 1 1 7.72905 47.4474 9.88748 
491 1 1 7.48313 46.8717 10.6025 
492 1 1 7.39785 46.1523 11.2776 
493 1 1 9.38751 47.777 7.85264 
494 1 1 10.1195 47.5385 7.31514 
495 1 1 10.9139 47.2142 6.90778 
496 1 1 17.6331 41.0607 10.1947 
497 1 1 13.5806 46.8237 6.63132 
498 1 1 14.472 46.2178 6.85785 
499 1 1 15.3064 45.5111 7.02075 
500 1 1 16.005 44.9074 7.38605 
501 1 1 16.6039 44.271 7.8292 
502 1 1 17.5855 41.9487 9.65261 
503 1 1 17.3388 42.7567 8.97031 
504 1 1 17.0676 43.5305 8.40061 
505 1 1 11.901 46.8972 6.63082 
506 1 1 12.8581 46.4575 6.41204 
507 1 1 17.5804 40.1968 10.7509 
508 1 1 8.00849 45.0315 13.5168 
509 1 1 8.4238 44.2934 14.1591 
510 1 1 9.0168 43.5992 14.6203 
511 1 1 17.2624 40.2313 11.6811 
512 1 1 16.7774 40.294 12.5222 
513 1 1 16.2254 40.5048 13.3319 
514 1 1 9.73597 42.9776 15.0592 
515 1 1 15.4975 40.7232 14.0165 
516 1 1 14.7657 41.0381 14.6263 
517 1 1 13.9814 41.2403 15.1238 
518 1 1 10.5284 42.4547 15.3005 
519 1 1 13.0534 41.4823 15.4573 
520 1 1 12.2104 41.7706 15.5569 
521 1 1 11.3312 42.1054 15.3957 
522 1 1 8.22077 47.2375 9.00951 
523 1 1 8.78524 47.0164 8.20171 
524 1 1 7.55981 45.4738 11.8913 
525 1 1 7.81183 44.7004 12.6348 
526 1 1 7.84064 46.583 9.62012 
527 1 1 7.60171 45.9408 10.2346 
528 1 1 7.53961 45.2277 10.8588 
529 1 1 9.40727 46.8371 7.52767 
530 1 1 10.2023 46.5609 7.0479 
531 1 1 11.0542 46.2901 6.59691 
532 1 1 17.7756 40.0489 9.85397 
533 1 1 17.6598 40.9598 9.24667 
534 1 1 13.8046 45.8867 6.39738 
535 1 1 14.6258 45.2679 6.44554 
536 1 1 15.3751 44.5781 6.67899 
537 1 1 16.0803 43.9746 7.06502 
538 1 1 16.6523 43.2257 7.49213 
539 1 1 17.4368 41.8269 8.69486 
540 1 1 17.0995 42.5083 8.01703 
541 1 1 12.1211 45.8697 6.2807 
542 1 1 12.975 45.4866 6.07329 
543 1 1 17.6438 39.1723 10.4268 
544 1 1 17.3179 39.3919 11.2949 
545 1 1 8.07698 44.0077 13.3075 
546 1 1 8.4876 43.3028 13.8895 
547 1 1 9.08395 42.6809 14.3416 
548 1 1 16.8293 39.4202 12.1401 
549 1 1 16.3088 39.5443 12.9329 
550 1 1 15.6198 39.7834 13.628 
551 1 1 9.81195 42.0361 14.6446 
552 1 1 14.854 40.0269 14.2455 
553 1 1 14.0967 40.3462 14.7411 
554 1 1 13.1538 40.5522 15.1305 
555 1 1 10.5716 41.5794 14.9082 
556 1 1 12.2854 40.8631 15.2591 
557 1 1 11.4323 41.1906 15.1089 
558 1 1 8.32437 46.346 8.61931 
559 1 1 8.80273 46.0314 7.86672 
560 1 1 7.60355 44.5297 11.5878 
561 1 1 7.83896 43.7754 12.3863 
562 1 1 7.98278 45.6838 9.24565 
563 1 1 7.68814 45.0309 9.92735 
564 1 1 7.54327 44.288 10.5987 
565 1 1 9.49767 45.8908 7.26486 
566 1 1 10.3355 45.6294 6.74401 
567 1 1 11.2 45.3873 6.33155 
568 1 1 17.8831 39.1958 9.5117 
569 1 1 17.8354 40.0597 8.84926 
570 1 1 17.5712 40.8873 8.27449 
571 1 1 13.7728 44.9158 6.07416 
572 1 1 14.6277 44.2888 6.09259 
573 1 1 15.3934 43.6425 6.39886 
574 1 1 16.1013 43.0137 6.71962 
575 1 1 16.6075 42.3146 7.16293 
576 1 1 17.1604 41.5919 7.73095 
577 1 1 12.1309 44.928 5.97858 
578 1 1 12.9465 44.5177 5.84549 
579 1 1 17.8228 38.2778 9.97063 
580 1 1 17.4152 38.3569 10.8839 
581 1 1 16.9347 38.4503 11.7146 
582 1 1 8.1262 43.0378 13.0456 
583 1 1 8.52731 42.3789 13.552 
584 1 1 9.12513 41.7514 13.9621 
585 1 1 16.348 38.5853 12.5457 
586 1 1 15.7181 38.873 13.2644 
587 1 1 14.9924 39.0962 13.876 
588 1 1 9.82469 41.1597 14.2659 
589 1 1 14.1893 39.3727 14.3951 
590 1 1 13.215 39.5995 14.6802 
591 1 1 12.391 39.8447 14.8188 
592 1 1 10.6953 40.6793 14.4982 
593 1 1 11.5814 40.2651 14.7044 
594 1 1 8.37369 45.3826 8.41456 
595 1 1 8.89127 45.0867 7.67368 
596 1 1 7.62516 43.6036 11.3815 
597 1 1 7.85302 42.9065 12.0446 
598 1 1 7.97691 44.6809 8.97219 
599 1 1 7.68335 44.0794 9.56245 
600 1 1 7.54779 43.3489 10.3266 
601 1 1 9.59495 44.8741 6.99578 
602 1 1 10.4625 44.6872 6.4353 
603 1 1 11.2786 44.4273 6.0813 
604 1 1 17.9772 38.2074 9.15358 
605 1 1 17.8496 37.2635 9.61701 
606 1 1 18.0042 37.2322 8.7033 
607 1 1 17.933 39.0651 8.60756 
608 1 1 17.6878 40.0177 7.948 
609 1 1 17.2518 40.7079 7.34946 
610 1 1 13.8451 43.9225 5.72144 
611 1 1 14.7521 43.3535 5.79719 
612 1 1 15.4516 42.7133 6.01735 
613 1 1 16.1121 42.04 6.375 
614 1 1 16.7138 41.3771 6.84527 
615 1 1 12.1944 44.0431 5.66058 
616 1 1 13.077 43.5849 5.49752 
617 1 1 17.5731 37.4193 10.5118 
618 1 1 17.0511 37.519 11.4015 
619 1 1 16.4398 37.7135 12.1611 
620 1 1 8.17149 42.2164 12.67 
621 1 1 8.64519 41.4525 13.1968 
622 1 1 9.19956 40.7756 13.5205 
623 1 1 15.7515 37.9774 12.8887 
624 1 1 14.9865 38.1223 13.5016 
625 1 1 14.2461 38.4859 13.971 
626 1 1 10.0136 40.3113 13.8634 
627 1 1 13.3126 38.6506 14.3484 
628 1 1 12.4422 38.9312 14.4569 
629 1 1 11.6187 39.3532 14.3255 
630 1 1 10.76 39.7322 14.1428 
631 1 1 17.5681 36.4545 10.188 
632 1 1 17.878 36.2992 9.20878 
633 1 1 8.40853 44.3814 8.08475 
634 1 1 8.98816 44.1319 7.34354 
635 1 1 7.63742 42.7154 10.9932 
636 1 1 7.84855 41.9988 11.7079 
637 1 1 7.96241 43.7573 8.61598 
638 1 1 7.67074 43.1096 9.3929 
639 1 1 7.64099 42.4888 9.97311 
640 1 1 9.73646 43.9716 6.70591 
641 1 1 10.4993 43.7283 6.18771 
642 1 1 11.3044 43.4261 5.77427 
643 1 1 18.0258 38.0953 8.26871 
644 1 1 18.0494 36.4876 8.11413 
645 1 1 18.0541 37.2585 7.71677 
646 1 1 17.786 39.0224 7.58962 
647 1 1 17.4132 39.7395 7.01245 
648 1 1 16.8791 40.3701 6.51214 
649 1 1 13.9127 43.03 5.41424 
650 1 1 14.7132 42.3534 5.46493 
651 1 1 15.4794 41.7305 5.71069 
652 1 1 16.2094 41.0683 6.06922 
653 1 1 12.2837 43.0676 5.39683 
654 1 1 13.1262 42.6468 5.13635 
655 1 1 17.1565 36.5677 11.068 
656 1 1 16.5108 36.7615 11.878 
657 1 1 15.7911 37.0288 12.5559 
658 1 1 8.18162 41.2827 12.2685 
659 1 1 8.63897 40.5494 12.7722 
660 1 1 9.32992 40.0023 13.1508 
661 1 1 14.9794 37.2408 13.1627 
662 1 1 14.1907 37.5418 13.6351 
663 1 1 13.3146 37.7676 14.0047 
664 1 1 10.0264 39.4309 13.4571 
665 1 1 12.4088 38.0385 14.1162 
666 1 1 11.5686 38.512 14.0131 
667 1 1 10.7385 38.8682 13.7458 
668 1 1 17.1512 35.6291 10.7264 
669 1 1 17.6358 35.5008 9.89797 
670 1 1 18.0216 35.8376 8.54641 
671 1 1 18.1486 35.7858 7.76329 
672 1 1 17.8888 35.2159 9.09725 
673 1 1 8.43644 43.4872 7.71644 
674 1 1 9.06222 43.2428 6.97543 
675 1 1 7.66525 41.7811 10.6572 
676 1 1 7.87319 41.0732 11.2939 
677 1 1 7.98319 42.8499 8.42702 
678 1 1 7.83605 42.1369 9.07934 
679 1 1 7.66524 41.4894 9.69759 
680 1 1 9.81318 43.0342 6.36161 
681 1 1 10.667 42.7566 5.8576 
682 1 1 11.4577 42.4466 5.39605 
683 1 1 17.8326 38.0997 7.25802 
684 1 1 18.1192 36.4236 7.21811 
685 1 1 17.9014 37.2304 6.70434 
686 1 1 17.4858 38.8118 6.62169 
687 1 1 16.9688 39.4935 6.07514 
688 1 1 16.3271 40.1604 5.7133 
689 1 1 13.9432 42.0891 5.00914 
690 1 1 14.7558 41.395 5.09992 
691 1 1 15.6218 40.7925 5.34251 
692 1 1 12.3279 42.1247 5.06726 
693 1 1 13.2618 41.5983 4.77115 
694 1 1 16.5962 35.7784 11.4658 
695 1 1 15.9036 36.0725 12.1219 
696 1 1 15.1163 36.2747 12.8011 
697 1 1 8.19305 40.3786 11.8576 
698 1 1 8.71386 39.6672 12.3411 
699 1 1 9.27323 39.1055 12.7597 
700 1 1 14.2663 36.5927 13.2237 
701 1 1 13.3696 36.8345 13.5213 
702 1 1 12.4967 37.1321 13.6949 
703 1 1 10.0355 38.4841 13.1487 
704 1 1 11.7175 37.5182 13.5494 
705 1 1 10.8252 37.9245 13.4003 
706 1 1 16.7269 34.8669 11.1269 
707 1 1 17.3187 34.634 10.4539 
708 1 1 17.7362 34.3578 9.64567 
709 1 1 18.2128 35.4227 6.96742 
710 1 1 18.1533 35.0284 8.13632 
711 1 1 18.04 34.472 8.7717 
712 1 1 8.55237 42.5784 7.41875 
713 1 1 9.10273 42.3358 6.72292 
714 1 1 7.70039 40.8232 10.2277 
715 1 1 7.92439 40.1323 10.8631 
716 1 1 8.118 41.9882 8.07838 
717 1 1 7.91347 41.2985 8.7236 
718 1 1 7.73043 40.6068 9.24535 
719 1 1 9.86258 42.1481 6.07654 
720 1 1 10.6214 41.8384 5.55019 
721 1 1 11.4814 41.5445 5.06267 
722 1 1 17.5882 37.9053 6.20295 
723 1 1 18.0084 36.2127 6.31204 
724 1 1 17.7378 36.9666 5.85941 
725 1 1 17.0985 38.5872 5.69788 
726 1 1 16.4505 39.2381 5.26388 
727 1 1 15.759 39.8587 5.00719 
728 1 1 14.0996 40.9847 4.6258 
729 1 1 14.9838 40.501 4.73424 
730 1 1 12.4432 41.2095 4.69003 
731 1 1 13.2525 40.7467 4.38229 
732 1 1 15.9778 35.111 11.7726 
733 1 1 15.211 35.3667 12.417 
734 1 1 14.4114 35.6806 12.8653 
735 1 1 8.24386 39.4521 11.4956 
736 1 1 8.72144 38.6986 12.0228 
737 1 1 9.37167 38.1228 12.4886 
738 1 1 13.4598 35.8972 13.1488 
739 1 1 12.4936 36.2131 13.2852 
740 1 1 11.7257 36.5561 13.1232 
741 1 1 10.1215 37.5102 12.7149 
742 1 1 10.8838 36.9981 13.0214 
743 1 1 16.8472 33.861 10.9093 
744 1 1 16.0812 34.2015 11.4763 
745 1 1 17.4167 33.6103 10.2597 
746 1 1 16.8924 32.8563 10.6177 
747 1 1 18.0777 35.4063 6.09129 
748 1 1 17.765 33.3337 9.52958 
749 1 1 18.2144 34.6449 6.26368 
750 1 1 18.095 33.6987 8.94353 
751 1 1 18.3414 34.4868 7.23804 
752 1 1 18.2581 34.1613 8.10435 
753 1 1 8.59955 41.6168 7.12888 
754 1 1 9.22125 41.3932 6.33193 
755 1 1 7.76864 39.9429 9.85201 
756 1 1 7.9501 39.185 10.5616 
757 1 1 8.14632 41.0806 7.79924 
758 1 1 7.98293 40.3286 8.30065 
759 1 1 7.7671 39.5995 8.86155 
760 1 1 9.94427 41.1464 5.7017 
761 1 1 10.7276 40.9245 5.18656 
762 1 1 11.5939 40.6449 4.66948 
763 1 1 17.2764 37.7019 5.33905 
764 1 1 17.8063 35.9747 5.52041 
765 1 1 17.3707 36.6997 5.00065 
766 1 1 16.6408 38.2985 4.88056 
767 1 1 15.8354 38.9306 4.56751 
768 1 1 15.0505 39.6092 4.34301 
769 1 1 14.2098 40.1775 4.27324 
770 1 1 12.5052 40.2241 4.24814 
771 1 1 13.4199 39.8298 4.04861 
772 1 1 15.3226 34.431 12.0272 
773 1 1 14.5343 34.7305 12.4825 
774 1 1 13.6318 35.0687 12.82 
775 1 1 8.28219 38.4771 11.1653 
776 1 1 8.75658 37.7967 11.6881 
777 1 1 9.39827 37.1974 12.046 
778 1 1 12.6006 35.3165 12.9174 
779 1 1 11.7329 35.6252 12.8279 
780 1 1 10.9176 36.0559 12.6703 
781 1 1 10.1721 36.5674 12.4667 
782 1 1 12.9718 34.5656 12.6557 
783 1 1 16.2046 33.1584 11.1652 
784 1 1 15.4123 33.4843 11.7672 
785 1 1 17.4088 32.5657 9.88263 
786 1 1 16.2044 32.3052 10.9389 
787 1 1 16.7605 32.0486 10.4327 
788 1 1 17.1655 31.5984 9.90452 
789 1 1 17.8396 34.9599 5.26489 
790 1 1 18.1265 33.9927 5.54954 
791 1 1 17.9889 32.7807 9.02668 
792 1 1 18.379 33.7361 6.49733 
793 1 1 18.2463 33.1284 8.24119 
794 1 1 18.3798 33.4611 7.43447 
795 1 1 8.6195 40.7614 6.83576 
796 1 1 9.24063 40.4599 5.99382 
797 1 1 7.76066 38.965 9.49225 
798 1 1 7.92101 38.2681 10.2215 
799 1 1 8.27466 40.0668 7.36276 
800 1 1 8.01261 39.3883 7.89049 
801 1 1 7.80189 38.6965 8.46448 
802 1 1 9.99167 40.2183 5.3444 
803 1 1 10.8183 40.0548 4.79224 
804 1 1 11.5933 39.7726 4.2686 
805 1 1 16.7045 37.3689 4.53044 
806 1 1 17.4112 35.7277 4.69434 
807 1 1 16.8157 36.418 4.29184 
808 1 1 15.9189 37.9711 4.20134 
809 1 1 15.1632 38.5595 4.00792 
810 1 1 14.2896 39.1742 3.93496 
811 1 1 12.554 39.3665 3.89953 
812 1 1 13.4542 38.9415 3.67439 
813 1 1 14.6276 33.7904 12.2065 
814 1 1 13.8611 34.2429 12.4786 
815 1 1 8.28877 37.5529 10.8374 
816 1 1 8.81521 36.811 11.3622 
817 1 1 9.4583 36.2548 11.7823 
818 1 1 11.8682 34.6012 12.5391 
819 1 1 10.9754 35.0264 12.4197 
820 1 1 10.149 35.5324 12.1588 
821 1 1 13.1702 33.8364 12.3798 
822 1 1 12.4615 34.0287 12.4221 
823 1 1 14.7493 33.0509 11.982 
824 1 1 15.3804 32.5076 11.4728 
825 1 1 15.6477 31.7313 11.1318 
826 1 1 17.751 31.8991 9.23791 
827 1 1 16.2857 31.2697 10.5788 
828 1 1 16.8251 30.9133 9.922 
829 1 1 17.4035 30.9864 9.29332 
830 1 1 17.4196 34.8677 4.40526 
831 1 1 17.7412 34.145 4.74979 
832 1 1 18.0135 33.4505 4.89201 
833 1 1 18.3299 33.1835 5.72025 
834 1 1 18.1528 32.1346 8.34721 
835 1 1 18.4229 32.8449 6.64458 
836 1 1 18.3636 32.4559 7.51536 
837 1 1 8.68809 39.7499 6.4374 
838 1 1 9.33047 39.5172 5.63759 
839 1 1 7.79992 38.0313 9.13165 
840 1 1 7.96878 37.3804 9.82732 
841 1 1 8.30614 39.1125 6.95262 
842 1 1 8.00374 38.4392 7.53684 
843 1 1 7.85177 37.7277 8.10776 
844 1 1 10.0333 39.3744 4.95806 
845 1 1 10.7229 39.1263 4.35315 
846 1 1 11.6533 38.8875 3.86414 
847 1 1 16.0579 37.0507 3.90157 
848 1 1 16.9352 35.5162 4.02996 
849 1 1 16.2168 36.1571 3.6668 
850 1 1 15.1942 37.6568 3.58471 
851 1 1 14.226 38.2101 3.47097 
852 1 1 12.5237 38.536 3.56292 
853 1 1 13.2291 38.1449 3.30538 
854 1 1 13.8527 33.2579 12.2245 
855 1 1 8.286 36.6443 10.4529 
856 1 1 8.85729 35.8729 10.99 
857 1 1 11.7444 33.6599 12.1503 
858 1 1 9.48519 35.3355 11.5327 
859 1 1 10.9473 34.0941 12.0782 
860 1 1 10.1298 34.6376 11.8258 
861 1 1 12.6492 33.1696 12.154 
862 1 1 11.7966 32.8398 11.8997 
863 1 1 14.4019 32.3507 11.8477 
864 1 1 14.8738 31.6313 11.4305 
865 1 1 15.4155 31.0007 11.0814 
866 1 1 15.759 30.425 10.6021 
867 1 1 17.9273 31.2416 8.44396 
868 1 1 16.3455 30.3318 10.1018 
869 1 1 16.8677 30.2214 9.41529 
870 1 1 17.4495 30.0999 8.32215 
871 1 1 17.0187 34.6482 3.78293 
872 1 1 17.4342 33.8001 4.01263 
873 1 1 17.8596 32.9817 4.30871 
874 1 1 18.1932 32.6033 5.01594 
875 1 1 18.4146 32.2566 5.83966 
876 1 1 18.2378 31.517 7.60532 
877 1 1 18.4006 31.8824 6.69307 
878 1 1 8.77028 38.8272 6.03815 
879 1 1 9.31774 38.628 5.14617 
880 1 1 7.77029 37.0248 8.75931 
881 1 1 8.01065 36.4162 9.53228 
882 1 1 8.41392 38.1223 6.53759 
883 1 1 8.07858 37.4712 7.13356 
884 1 1 7.89139 36.8424 7.85408 
885 1 1 10.0342 38.4977 4.52557 
886 1 1 10.8238 38.2689 3.91112 
887 1 1 11.619 37.9594 3.50501 
888 1 1 15.3311 36.6619 3.22336 
889 1 1 15.681 35.774 3.08943 
890 1 1 16.2905 35.0668 3.33661 
891 1 1 14.5203 37.262 3.18237 
892 1 1 13.7874 37.5549 3.16516 
893 1 1 12.3834 37.6374 3.23547 
894 1 1 13.089 37.3869 3.06518 
895 1 1 13.3915 32.4084 11.9846 
896 1 1 8.34407 35.6725 10.1964 
897 1 1 8.88737 34.9668 10.718 
898 1 1 10.9412 33.1418 11.7151 
899 1 1 9.47875 34.3548 11.1553 
900 1 1 10.153 33.7211 11.5699 
901 1 1 12.3859 32.3095 11.8113 
902 1 1 11.5275 32.2034 11.5811 
903 1 1 13.92 31.6012 11.653 
904 1 1 14.4507 30.8461 11.3072 
905 1 1 14.9441 30.1237 10.818 
906 1 1 15.669 29.7433 10.232 
907 1 1 17.9338 30.5126 7.56744 
908 1 1 16.2337 29.5687 9.59182 
909 1 1 16.7538 29.4784 8.81276 
910 1 1 17.031 29.3515 8.00808 
911 1 1 17.4844 29.6734 7.43249 
912 1 1 16.7 34.1052 3.27638 
913 1 1 17.0045 33.3962 3.28772 
914 1 1 17.4894 32.8259 3.60591 
915 1 1 17.8497 32.2034 4.18662 
916 1 1 18.1201 31.6781 4.98387 
917 1 1 18.2666 31.3078 5.83762 