ITEM: TIMESTEP
100000000
ITEM: NUMBER OF ATOMS
44148
ITEM: BOX BOUNDS pp pp pp
0 62
0 62
0 62
ITEM: ATOMS id mol type x y z vx vy vz 
1 1 3 22.9565 4.95739 9.73604 -0.123045 -0.0616006 -0.0307445
2 1 1 22.6531 5.38348 9.06765 0.00182481 -0.0726175 0.0855572
3 1 1 23.0805 5.84194 9.94301 0.106967 -0.186177 -0.0381207
4 1 1 22.6141 6.28197 9.29441 -0.0878507 0.22527 0.0132582
5 1 3 23.3579 5.28997 10.5943 -0.00385981 0.0126633 0.0767747
6 1 1 22.9544 6.66639 10.2469 0.125361 0.0943617 -0.0744213
7 1 1 22.4643 7.23952 9.70852 -0.197343 -0.168106 -0.0661806
8 1 1 22.5913 4.45453 9.15328 -0.037486 -0.122211 0.162191
9 1 3 22.0792 4.87688 8.35108 0.197143 0.0981051 0.0458824
10 1 1 22.2394 5.7935 8.46927 -0.104819 4.61595e-05 0.0424946
11 1 1 22.1164 6.69474 8.69557 0.00273463 0.0569722 -0.0674227
12 1 1 21.8043 7.47061 9.0055 0.0387301 -0.0679826 -0.0869982
13 1 3 23.0024 4.06499 10.0121 -0.0804928 -0.00590386 0.102572
14 1 1 23.2296 4.53293 10.4335 0.0784672 0.100223 -0.107883
15 1 1 23.4179 4.58072 11.1503 0.0896993 0.154219 -0.179007
16 1 1 23.3099 6.13405 10.8509 -0.00858009 -0.177465 -0.00220712
17 1 3 23.4918 5.40026 11.5009 -0.0257379 -0.0852177 -0.0889323
18 1 1 21.9205 7.98348 9.68216 0.0806 -0.0109776 -0.0474077
19 1 1 22.2101 8.08738 10.3792 -0.0135274 0.217539 -0.035655
20 1 1 22.6519 7.51546 10.6501 -0.0224144 0.109582 0.07019
21 1 3 23.0521 6.92621 11.2092 0.013245 0.0632623 -0.00757467
22 1 1 22.7506 3.37175 9.96282 0.075529 0.0432698 0.0466566
23 1 1 22.3637 3.72417 9.13108 -0.240124 0.118712 -0.278205
24 1 1 21.858 4.01209 8.44286 -0.0309086 0.142099 0.0502672
25 1 3 21.4374 4.43647 7.85741 0.0649998 0.0370137 0.0271054
26 1 1 21.5186 5.41956 7.7171 0.0758691 0.0262969 -0.180732
27 1 1 21.5089 6.27034 7.90123 -0.0241918 0.0390934 0.169834
28 1 1 21.3285 8.25817 9.21158 -0.122099 0.240516 -0.036965
29 1 3 21.3157 7.05953 8.19839 0.168305 0.0439369 -0.00198036
30 1 1 21.034 7.85038 8.48401 0.0791843 0.0821099 0.164982
31 1 1 23.1717 3.68206 10.8081 0.00359374 0.154008 -0.0896076
32 1 1 23.3608 4.04529 11.7364 -0.0191312 0.114263 0.0453371
33 1 3 23.4765 4.77025 12.0654 0.0721407 0.0588602 -0.278887
34 1 1 23.3699 6.30113 11.9589 0.0164366 -0.115932 0.15426
35 1 1 23.4552 5.55577 12.4834 -0.0574362 -0.0320127 0.0225849
36 1 1 21.5492 8.53812 9.97326 0.0866963 0.106584 -0.0150454
37 1 3 21.7644 8.741 10.8267 -0.00185152 -0.070215 0.107522
38 1 1 20.873 8.88638 9.56419 0.0447889 -0.153934 -0.0300114
39 1 1 22.2905 8.18847 11.2556 0.188286 0.0169794 0.0195461
40 1 1 22.669 7.7329 11.6153 -0.0916038 0.0730533 0.0750533
41 1 3 22.9518 7.14065 12.3153 -0.0791177 -0.000731192 0.099861
42 1 1 22.7212 2.90056 10.5229 -0.0322486 0.00498855 -0.0562365
43 1 1 22.1543 2.5029 9.84055 -0.0850196 0.0365283 -0.0960173
44 1 1 21.9847 2.89535 9.17644 0.0608879 0.146726 0.0387494
45 1 3 21.7303 3.28022 8.64056 0.0171287 0.00680939 -0.0446487
46 1 1 21.3025 3.51228 8.15751 0.0616667 0.0199575 0.0721106
47 1 1 20.6767 3.83908 7.51423 -0.0643183 0.106102 -0.105913
48 1 1 20.7982 4.83252 7.25581 0.115269 0.0898729 -0.0497689
49 1 3 20.7487 5.88632 7.25689 0.0155078 -0.0474356 0.0747858
50 1 1 20.6566 6.75846 7.50421 -0.0525149 0.225452 -0.0975006
51 1 1 20.6048 8.51081 8.8302 0.036812 0.082279 -0.0352749
52 1 1 20.4147 7.45337 7.84067 -0.0740328 -0.185931 -0.0710297
53 1 3 20.3207 8.08731 8.26678 0.00515119 0.0524795 0.0172955
54 1 1 22.9027 2.81405 11.2833 -0.057274 -0.12884 -0.15035
55 1 1 22.317 2.04395 11.1125 -0.0785523 0.0465386 0.301194
56 1 1 23.1525 3.30993 11.7707 -0.0571622 -0.0300949 0.0808745
57 1 3 23.3093 3.84083 12.4668 -0.0261623 0.0118114 0.207981
58 1 1 22.8235 2.58321 12.2467 -0.051297 -0.0584895 0.0518372
59 1 1 23.3675 4.69676 12.9609 -0.128205 0.129784 -0.058018
60 1 1 23.1659 6.38802 12.9644 -0.00688569 -0.104283 -0.0535883
61 1 3 23.1883 5.45353 13.415 0.102577 -0.0595151 -0.109434
62 1 1 21.8858 8.70695 11.528 0.096174 -0.0471351 0.0441025
63 1 1 21.1005 9.12534 10.3957 -0.148103 -0.0916336 -0.252828
64 1 1 21.2654 9.23095 11.3425 0.151105 -0.00509438 -0.191316
65 1 3 20.0746 9.07089 9.23313 -0.0176709 0.0130247 0.0293518
66 1 1 20.3733 9.37299 10.0884 -0.0452022 0.17883 -0.0526259
67 1 1 22.0941 8.39628 12.0773 -0.194504 0.0132418 0.0230772
68 1 1 22.4383 7.92282 12.6132 0.0511695 0.0078252 -0.0668413
69 1 3 22.7909 7.13707 13.2101 -0.0848075 0.155703 -0.0147124
70 1 1 22.0675 2.13059 10.3048 -0.2178 -0.20568 -0.0713818
71 1 1 21.6177 2.07379 9.52959 0.100686 -0.0735632 -0.0432285
72 1 1 21.1116 2.5543 8.62333 -0.137781 -0.0606377 -0.00995677
73 1 3 20.5523 2.99728 7.91457 -0.0642632 0.0249205 -0.0792763
74 1 1 19.9953 3.38925 7.34338 -0.183792 0.102201 0.0808147
75 1 1 20.0867 4.24926 7.0436 -0.152974 -0.0674119 -0.0263275
76 1 1 20.0147 5.29106 6.91677 -0.0430615 0.0211272 0.087275
77 1 3 19.9159 6.27357 7.10367 0.0514066 0.125482 0.0162523
78 1 1 19.7229 7.08438 7.30491 -0.0105356 -0.000590153 -0.109177
79 1 1 19.844 8.6187 8.47159 -0.00581907 0.00122774 -0.112537
80 1 1 19.4798 7.95725 7.79169 -0.152196 0.269596 0.126171
81 1 3 19.218 9.14667 8.91575 0.00663722 -0.075026 0.258217
82 1 1 21.5633 1.42025 10.8745 0.0475062 0.107197 0.293602
83 1 1 22.4066 1.99422 12.0228 0.00812899 -0.100016 0.0755018
84 1 1 21.8681 1.58739 11.6113 0.0899323 0.0158939 -0.0289657
85 1 3 23.0004 3.04307 12.702 -0.0199875 -0.014255 -0.0996397
86 1 1 23.1009 3.84831 13.3887 -0.0738832 0.205933 -0.0765851
87 1 1 22.4928 2.32572 12.9408 -0.0606457 0.0923121 -0.0599967
88 1 1 23.0168 4.64627 13.9289 -0.0934302 0.0780284 -0.0359418
89 1 3 22.8478 6.28891 13.9209 0.1875 -0.0386842 0.222311
90 1 1 22.7934 5.35149 14.3747 -0.034098 0.0809565 0.106417
91 1 1 21.472 9.04774 12.3108 0.135073 -0.0707868 0.0492112
92 1 1 20.595 9.51824 11.0212 -0.00847608 0.0350011 -0.131024
93 1 3 20.6541 9.52091 11.9006 -0.00607463 -0.130157 -0.0728901
94 1 1 19.5534 9.51962 9.76266 0.0717902 -0.0404886 0.153046
95 1 1 19.8227 9.76631 10.6981 -0.134155 0.0195608 -0.0965296
96 1 1 21.8085 8.48389 12.9999 0.0519913 -0.145336 -0.0696557
97 1 3 22.2446 7.80558 13.5234 -0.0275846 0.0598951 -0.131126
98 1 1 22.4123 6.96163 14.1838 -0.00575613 0.0265834 -0.180672
99 1 1 21.3583 1.48168 10.0407 -0.0196364 0.0169445 0.0887356
100 1 1 20.8107 1.65923 9.17836 -0.0977741 0.0330859 -0.0676609
101 1 3 20.2574 2.00891 8.39641 -0.0598462 0.0953789 -0.110732
102 1 1 19.7358 2.44582 7.80532 -0.0788717 -0.0118649 -0.160005
103 1 1 19.4008 3.8268 6.94625 0.0540254 0.148431 -0.113588
104 1 1 19.2946 3.13419 7.21718 0.0154604 -0.0176459 -0.0957186
105 1 3 19.1496 4.68276 6.7396 0.155604 -0.0839014 0.076621
106 1 1 19.1408 5.8156 6.88568 -0.01103 -0.00811954 0.0197649
107 1 1 19.0133 6.66736 7.06514 -0.107983 -0.0107793 0.237568
108 1 1 18.9139 7.30894 7.30869 -0.1794 -0.0860216 0.049351
109 1 3 18.6517 9.58004 9.38894 0.0575553 -0.0579186 -0.140943
110 1 1 18.9159 8.56011 8.1787 0.151001 -0.00335861 -0.0854079
111 1 1 18.5383 7.76448 7.59132 0.161033 -0.216066 0.0738795
112 1 1 18.3675 9.07876 8.66058 0.187481 -0.0146734 -0.0953985
113 1 3 21.3237 1.10699 11.711 -0.123583 -0.00704747 -0.190554
114 1 1 20.9374 0.97261 10.7672 -0.0206033 0.176485 -0.0604487
115 1 1 21.6647 1.53177 12.672 0.00766625 0.0821857 0.0254084
116 1 1 20.9486 0.903553 12.6051 -0.0825249 -0.00839747 0.18847
117 1 3 22.5724 2.87661 13.5394 0.194603 0.0450591 0.086478
118 1 1 22.6246 3.6834 14.2531 -0.0303068 -0.0709357 0.00339488
119 1 1 21.9635 2.09829 13.6512 -0.0460127 -0.260778 -0.0385958
120 1 1 22.4751 4.52667 14.7758 -0.0106788 0.134394 0.00640269
121 1 3 22.4384 6.16031 14.7943 -0.0829864 0.00160012 -0.121779
122 1 1 22.2775 5.25286 15.1259 -0.134645 0.101602 0.0412137
123 1 1 21.0932 9.0793 13.2961 0.0711343 0.0893362 -0.21876
124 1 1 20.7107 9.42442 12.7374 0.0349047 0.0400967 -0.0158005
125 1 3 19.9588 9.8313 11.6757 -0.188339 -0.0381343 -0.163886
126 1 1 20.1343 9.6679 12.6176 0.0181454 0.0176504 0.0575345
127 1 1 18.9561 9.86773 10.2595 0.0627243 -0.00578714 0.0776077
128 1 1 19.0116 10.0662 11.1539 0.0806805 0.100564 0.0208939
129 1 3 18.1205 9.96971 9.92883 -0.114214 -0.0161413 -0.247769
130 1 1 21.9212 6.73116 15.0379 0.0620227 -0.0990244 -0.0950652
131 1 1 21.5062 8.44283 13.8487 -0.0681495 -0.124838 -0.0373666
132 1 1 21.7125 7.55211 14.6683 -0.299042 0.056374 -0.142656
133 1 3 20.5331 0.978069 9.8616 -0.0915255 0.0717797 0.0185051
134 1 1 20.0027 1.25097 9.08253 0.0375964 0.0849467 0.0197906
135 1 1 18.8201 2.56928 7.47869 -0.0305345 -0.0606927 -0.0998986
136 1 1 19.5101 1.60371 8.4505 -0.0683013 0.0617935 0.107705
137 1 3 18.9505 1.9264 7.96015 0.0756175 -0.0363603 -0.158494
138 1 1 18.6887 3.7098 6.93683 0.255694 0.136418 -0.0599355
139 1 1 18.4087 2.99001 7.24532 0.202034 0.0629951 -0.0214845
140 1 1 18.0932 4.44831 6.8341 0.00529596 -0.142963 0.19155
141 1 3 18.2936 5.45476 6.78968 0.103191 -0.061412 0.144434
142 1 1 18.4709 6.18736 6.96353 0.030376 -0.0703687 0.102932
143 1 1 18.0594 6.95235 7.26573 0.0544784 -0.103411 0.0797959
144 1 1 17.754 9.57688 9.17561 0.159116 0.109254 -0.049709
145 1 3 18.1022 8.36779 7.99934 0.26197 -0.0769095 0.0290879
146 1 1 17.8111 7.73639 7.62705 -0.0279199 0.0279214 -0.145826
147 1 1 17.4519 9.00247 8.46529 -0.00959233 0.115639 -0.0396618
148 1 1 20.6201 0.670975 11.7238 0.133138 0.0498678 -0.0340941
149 1 3 20.1083 0.550402 10.7554 0.0558436 -0.0271586 0.0402277
150 1 1 21.2188 1.40529 13.6085 0.0189285 0.0441036 -0.044352
151 1 1 20.1523 0.462301 12.4328 0.0166062 0.0185405 -0.0770305
152 1 1 20.3832 0.842913 13.4174 0.116449 0.06513 0.0349328
153 1 3 22.0043 2.81796 14.3631 0.0915258 0.0650965 -0.010404
154 1 1 22.0528 3.60175 14.9906 0.0506317 -0.00716359 -0.191619
155 1 1 21.378 2.04605 14.3198 -0.161346 -0.00743279 0.0313131
156 1 1 21.8374 4.46575 15.4667 -0.0217576 0.00238953 0.0390207
157 1 3 21.8816 5.87922 15.487 0.0549726 -0.101746 0.0542522
158 1 1 21.6421 5.17347 15.6796 0.101535 -0.00770095 -0.0424823
159 1 1 20.8239 8.87277 13.9742 0.0918825 -0.0312822 -0.0305174
160 1 1 20.1842 9.41813 13.5282 0.0123046 -0.0149332 -0.0118323
161 1 3 19.4378 9.90944 13.0832 -0.0511801 -0.0986196 -0.0188114
162 1 1 19.1212 10.0401 12.2339 0.0632562 0.0297564 -0.0770673
163 1 1 18.2631 10.233 10.8032 0.021465 -0.1619 0.00294024
164 1 1 18.3934 10.317 11.6071 0.0894326 -0.0621299 -0.0627849
165 1 3 17.1939 10.073 9.77716 -0.0192951 0.100895 -0.0601565
166 1 1 17.5857 10.2993 10.4605 0.0412864 0.0334604 -0.109353
167 1 1 21.3092 7.07311 15.4275 0.144543 -0.2022 -0.0147552
168 1 1 21.3719 6.45229 15.7285 0.0422839 -0.0677194 0.0814979
169 1 3 20.8903 8.46731 14.5755 0.004655 0.00672446 0.200972
170 1 1 20.8571 7.73205 15.2584 0.115953 -0.207828 0.125331
171 1 1 19.6162 0.653999 9.92386 0.00105061 0.124119 0.0246757
172 1 1 19.1332 0.980961 9.18064 0.0152402 -0.00409243 -0.159827
173 1 3 18.2592 2.33746 7.69446 -0.08622 -0.0924398 0.111454
174 1 1 18.5198 1.26411 8.68535 0.0463497 0.0280056 -0.0834287
175 1 1 18.1844 1.74068 8.12179 -0.10613 -0.0233311 -0.0691543
176 1 1 17.5968 2.68804 7.57865 0.11452 -0.0626581 -0.116119
177 1 3 17.8363 3.56977 7.07718 -0.169143 0.0394621 -0.00256106
178 1 1 17.2352 4.25711 7.04784 -0.136019 0.0221827 -0.0425103
179 1 1 17.4343 5.16966 6.94254 -0.016309 0.0253877 -0.0305632
180 1 1 17.6938 6.12957 7.07025 0.0220706 4.77738e-05 0.0783407
181 1 3 17.0794 6.64505 7.31436 0.0282727 -0.128305 -0.113908
182 1 1 17.1101 7.32211 7.46562 0.0815994 0.00497021 0.0409788
183 1 1 16.8401 9.61497 8.99594 0.109129 0.00236044 0.11675
184 1 1 16.3491 10.1164 9.62299 -0.00390525 -0.248792 0.0844019
185 1 3 17.1382 8.23408 7.95945 0.121598 -0.133006 0.00476549
186 1 1 16.6404 8.99872 8.44533 0.012906 0.0475652 0.0516374
187 1 1 19.7358 0.308855 11.622 -0.0814201 -0.0179218 -0.0623495
188 1 1 19.1542 0.32112 10.7712 0.319055 -0.0017987 -0.0055111
189 1 3 20.7153 1.42838 14.3071 -0.000362684 -0.0534064 -0.125303
190 1 1 19.9307 1.01095 14.2421 -0.148642 0.0926114 -0.104733
191 1 1 19.3886 0.173693 12.3408 0.0939098 -0.160018 0.0046844
192 1 1 19.5711 0.356812 12.9963 -0.021382 -0.205051 0.0218157
193 1 3 19.5956 0.64224 13.7489 0.0330478 0.0898491 -0.166633
194 1 1 21.3582 2.85503 15.1177 0.0357486 0.165708 0.0275104
195 1 1 21.2968 3.63865 15.6265 0.0265709 -0.0433691 0.020644
196 1 1 20.7269 2.11704 15.0702 -0.0499186 -0.0460502 0.0367743
197 1 3 21.042 4.61265 16.052 0.0620409 0.0806477 -0.178495
198 1 1 21.1655 5.68013 16.0294 0.0340638 -0.0448325 -0.0993905
199 1 1 20.1754 8.9861 14.3592 -0.0691141 -0.0128793 0.0563358
200 1 1 19.5446 9.34656 14.3136 0.0236225 0.0697505 0.0246731
201 1 3 19.1951 9.75199 13.6549 -0.0104334 -0.0551885 0.0847673
202 1 1 18.6612 10.1784 13.2051 -0.0999062 0.0324627 0.0279973
203 1 1 18.0837 10.4549 12.3908 0.058462 -0.124449 -0.199492
204 1 1 17.5202 10.6093 11.3826 0.10524 -0.119333 -0.0415654
205 1 3 16.7023 10.5461 10.5086 0.173515 -0.074764 0.124759
206 1 1 20.6782 7.07954 15.8631 -0.00234811 0.11614 0.00396935
207 1 1 20.5923 6.29526 16.2777 0.0897765 -0.0854406 0.127285
208 1 1 20.2 8.38536 15.1587 0.00448418 -0.0731986 0.0603891
209 1 3 20.0498 7.66839 15.803 -0.10001 0.0224236 -0.102668
210 1 1 18.6408 0.535619 9.95075 -0.0686563 0.0560339 0.0706837
211 1 1 18.1245 0.810259 9.38987 0.0420894 0.0890928 0.101213
212 1 1 17.567 1.93237 8.08206 0.0632746 0.0396948 0.19191
213 1 3 17.5492 1.29895 8.77789 -0.0487084 -0.106769 0.147952
214 1 1 16.8483 2.45376 7.96053 -0.0142371 -0.0413028 0.139094
215 1 1 17.05 3.33589 7.40726 0.0723051 -0.097222 -0.0585022
216 1 1 15.8353 10.4352 9.98998 0.135274 -0.267787 0.0534086
217 1 3 15.8012 9.81622 9.16845 0.0657655 0.0274659 -0.0908006
218 1 1 16.3919 3.89707 7.43834 0.0520402 -0.00429648 0.100776
219 1 1 16.5366 4.81837 7.24733 -0.101438 0.164113 -0.0970952
220 1 1 16.7288 5.85612 7.21484 -0.0369267 0.165949 -0.163104
221 1 3 16.3677 6.79341 7.43333 0.0259901 0.157829 -0.0220193
222 1 1 16.2657 7.61273 7.7101 -0.0962454 0.0648607 0.200634
223 1 1 15.9676 9.2168 8.60679 0.159565 0.00972632 0.0655658
224 1 1 16.0409 8.48586 8.13025 0.00235843 -0.0697561 -0.0480185
225 1 3 18.1883 0.248527 10.7278 0.0380261 0.0703167 -0.0618469
226 1 1 18.6839 0.0616608 11.7261 -0.0324192 0.0244902 0.0506416
227 1 1 19.9477 1.59766 14.9972 -0.0144084 0.0935332 0.0341831
228 1 1 19.4068 1.20109 14.725 -0.0308684 -0.00762857 -0.0493398
229 1 3 19.0455 0.802386 14.221 -0.164068 0.148474 -0.265846
230 1 1 18.603 0.151465 12.7751 -0.0743764 0.122898 0.0922648
231 1 1 18.9762 0.447932 13.4807 -0.0535759 -0.190895 -0.0812275
232 1 1 20.5561 2.83917 15.725 -0.136769 0.00967686 -0.204425
233 1 3 20.4285 3.61004 16.1121 0.0353625 -0.0784764 -0.120058
234 1 1 19.8676 2.30489 15.6408 -0.169112 0.151217 -0.0188003
235 1 1 20.0176 4.33183 16.5061 0.100406 0.0653823 0.0933478
236 1 1 20.407 5.29638 16.4625 -0.0538357 -0.181305 -0.144796
237 1 3 19.5994 8.96927 14.9605 -0.0358531 -0.0951953 -0.188571
238 1 1 18.8298 9.51215 14.6743 0.018555 0.0141973 0.0564087
239 1 1 18.3259 10.0454 14.0255 0.0949253 0.0208054 0.118343
240 1 1 17.8067 10.4663 13.2634 -0.0151678 -0.0605113 0.0492244
241 1 3 17.2079 10.792 12.4481 0.0935977 0.207947 0.172685
242 1 1 16.5142 10.8651 11.587 -0.0911853 -0.17431 0.0597118
243 1 1 15.7805 10.9231 10.8439 -0.0862998 -0.109473 0.0104053
244 1 1 19.9074 6.85321 16.3686 -0.0717511 -0.142005 0.122229
245 1 3 19.7549 5.98139 16.733 0.207192 0.122575 -0.0635475
246 1 1 19.4185 8.25776 15.6718 -0.104697 0.0711289 0.0998014
247 1 1 19.2671 7.50798 16.3084 0.181305 -0.0118452 0.0852286
248 1 1 17.735 0.545131 10.1053 -0.0112165 -0.0065724 -0.00686498
249 1 3 17.3176 0.840586 9.58587 0.139268 -0.134637 -0.094832
250 1 1 16.7704 1.80934 8.56105 -0.0713814 -0.00396751 0.0540061
251 1 1 16.7201 1.21018 9.34822 0.0687791 -0.0917227 -0.0351209
252 1 1 15.9974 2.40389 8.44188 -0.132304 -0.0031118 0.124561
253 1 3 16.2123 3.12402 7.92679 -0.0462841 -0.195158 -0.198719
254 1 1 14.9225 10.7698 10.2405 -0.00501139 0.0721426 -0.0226168
255 1 1 15.0251 10.1446 9.52962 -0.116661 -0.0825874 -0.0605313
256 1 1 15.0396 9.37275 8.78273 0.0537347 -0.0765144 -0.13796
257 1 3 15.5819 3.81335 7.81542 0.135255 0.0165276 0.0929882
258 1 1 15.6917 4.55516 7.50536 -0.0293795 0.0831638 -0.0450893
259 1 1 15.9022 5.20403 7.34126 -0.140539 0.00426996 -0.0669702
260 1 1 15.6325 6.14776 7.42377 -0.112272 0.151583 0.0391816
261 1 3 15.4127 6.96618 7.55403 -0.120754 -0.0287239 -0.0862389
262 1 1 15.3616 7.91084 7.82959 -0.0880027 -0.0194995 0.0210527
263 1 1 15.1853 8.61981 8.20587 -0.136103 -0.10932 0.00784276
264 1 1 17.4205 0.395652 10.769 -0.0488986 0.0627934 -0.148417
265 1 3 17.5921 0.174921 11.4344 0.0978411 -0.0405513 -0.0115784
266 1 1 17.8077 0.131682 12.4081 -0.0639104 -0.11335 0.144285
267 1 1 19.02 1.85692 15.4886 0.00301081 -0.0380001 0.0488031
268 1 1 18.6804 1.17662 14.8801 0.109683 0.0597313 -0.0650139
269 1 3 18.363 0.708395 14.1433 -0.0289309 -0.0274694 -0.00297826
270 1 1 18.0182 0.358463 13.3902 -0.0740625 -0.00654367 -0.0367365
271 1 1 19.7692 3.01156 16.0876 -0.0593319 -0.0129761 -0.0409192
272 1 1 19.7109 3.64898 16.432 -0.0201867 -0.148892 0.0928142
273 1 3 19.2013 2.58721 16.0267 -0.0556919 0.0313118 -0.011357
274 1 1 19.1712 4.13187 16.7533 -0.0909432 -0.102616 -0.145374
275 1 1 19.563 5.07636 16.8234 0.0408556 -0.000249861 0.0508217
276 1 1 18.7647 8.86107 15.4835 -0.00411866 0.0814983 0.0908523
277 1 3 18.1321 9.22894 15.4096 0.0606166 -0.000982025 0.145171
278 1 1 17.7768 9.7927 14.8883 0.0336863 0.0651501 -0.111153
279 1 1 17.4115 10.2437 14.1237 -0.106967 0.0484042 0.0455443
280 1 1 16.9147 10.7006 13.368 0.0130362 -0.0610871 -0.0105804
281 1 3 16.2846 11.012 12.5105 0.150762 0.157708 0.0397891
282 1 1 15.5872 11.1815 11.7542 0.0753558 0.0705999 -0.0944169
283 1 1 14.788 11.2221 11.0335 -0.0449959 0.0938173 -0.010328
284 1 1 19.1507 6.68861 16.6754 0.0364167 -0.0374306 0.0135281
285 1 3 18.9189 5.85658 17.0358 0.0104322 0.342272 -0.000279378
286 1 1 18.5902 8.11581 16.1158 0.128858 0.0711738 -0.0615916
287 1 1 18.5008 7.25974 16.6384 0.000771937 0.139301 0.131606
288 1 1 16.8235 0.751016 10.2614 0.100103 -0.270812 -0.131798
289 1 3 16.0643 1.63129 9.11771 0.180757 -0.111686 -0.114515
290 1 1 16.1419 1.25413 9.68935 0.0665761 -0.193365 0.0882002
291 1 1 13.991 11.0836 10.4677 -0.0403562 -0.0135429 0.0694364
292 1 1 15.2509 2.33193 8.93491 -0.104906 0.0730686 0.0582684
293 1 3 15.3381 3.05878 8.32271 0.0366221 -0.0127092 0.0267176
294 1 1 14.119 10.5112 9.74647 0.09254 -0.0613358 -0.0071132
295 1 1 14.2522 9.81903 9.0843 0.145549 -0.0205042 0.103668
296 1 1 14.3547 8.97568 8.47209 -0.0155042 -0.029514 0.0549406
297 1 3 14.7155 3.71182 8.1531 -0.0830649 0.217385 0.0694502
298 1 1 14.9869 4.28604 7.79351 0.0487432 -0.122268 -0.135868
299 1 1 14.9832 5.22753 7.53472 -0.0199327 -0.155402 -0.045617
300 1 1 14.6674 6.27442 7.58144 -0.0715011 -0.0429568 -0.107633
301 1 3 14.5236 7.25867 7.74569 0.049424 -0.107009 -0.107469
302 1 1 14.3979 8.11248 8.01852 0.154794 -0.00977288 -0.102199
303 1 1 17.1929 0.369669 13.0692 0.000812462 -0.178521 -0.00584696
304 1 1 16.7421 0.511191 11.1457 0.0571265 0.086566 0.133329
305 1 3 16.9277 0.336821 12.0518 -0.0767381 -0.053306 -0.0890006
306 1 1 18.4865 2.36414 15.9598 0.0801974 0.107256 0.0299494
307 1 1 18.1489 1.67612 15.3039 0.104378 -0.00989681 0.0747419
308 1 1 17.8312 1.06046 14.738 0.0309747 0.0154667 0.0400686
309 1 3 17.4557 0.618248 13.965 0.126021 -0.0909735 0.00704257
310 1 1 18.8899 3.27916 16.514 -0.0203422 -0.0173618 -0.119497
311 1 1 18.393 3.98407 16.9035 0.0996536 -0.00403587 -0.130686
312 1 1 18.5516 4.87477 17.1272 -0.202659 0.0683851 -0.0438412
313 1 3 17.9143 8.67452 16.0104 -0.103746 -0.00184316 -0.00841898
314 1 1 17.3947 9.4778 15.5872 0.0597628 0.0675617 0.0540275
315 1 1 16.8895 10.1175 14.9354 0.0533383 0.00813068 0.0199445
316 1 1 16.4988 10.6037 14.2495 0.216534 -0.0386367 0.120398
317 1 3 16.0122 10.9889 13.4685 -0.0447162 0.0923671 -0.174725
318 1 1 15.352 11.2733 12.707 0.152123 0.158268 0.112449
319 1 1 14.6176 11.4667 11.9926 0.0263415 -0.0987877 0.0769001
320 1 1 13.8923 11.4526 11.2928 -0.0783185 0.154096 -0.104895
321 1 3 18.3157 6.53175 16.9728 0.0105184 0.0558582 0.0868687
322 1 1 18.1273 5.7467 17.1715 0.0286528 0.231448 -0.0276668
323 1 1 17.8397 7.86503 16.5622 0.00351768 0.204731 -0.0424476
324 1 1 17.8466 7.18348 16.8929 0.025789 -0.0711665 -0.0372857
325 1 3 16.043 0.857632 10.9994 0.0670664 0.0358521 0.232884
326 1 1 15.8806 1.06743 10.4022 -0.075497 0.128856 -0.149125
327 1 1 15.2572 1.64811 9.73647 -0.046642 0.0363451 0.0467584
328 1 1 14.5405 2.3 9.37601 0.0603517 0.102852 -0.0368803
329 1 3 13.1014 11.3679 10.6664 0.00772892 0.0496367 0.0859357
330 1 1 13.1991 10.8104 9.95313 0.073272 0.190764 -0.00604202
331 1 1 14.5145 2.91961 8.80279 0.000466271 -0.115683 -0.052593
332 1 1 13.3056 10.1154 9.24665 0.193325 0.0168361 -0.0812479
333 1 3 13.4395 9.30297 8.7021 0.123844 -0.0566211 0.102839
334 1 1 13.5431 8.43963 8.23031 0.0204168 -0.0537827 -0.0758446
335 1 1 13.9886 3.59799 8.46783 -0.111046 0.0740151 0.0470048
336 1 1 14.0798 4.50542 8.04953 -0.121245 0.0376903 0.160618
337 1 3 14.0334 5.55172 7.82079 -0.043676 -0.0378119 -0.0310082
338 1 1 13.8645 6.5262 7.80668 0.00153766 -0.180807 -0.147147
339 1 1 13.6171 7.5079 7.95296 -0.165903 0.110328 -0.0226577
340 1 1 18.0547 2.74749 16.3161 -0.00136096 -0.00823407 -0.101831
341 1 3 16.5507 0.729503 13.7974 -0.0138351 -0.0375168 -0.0720783
342 1 1 16.3405 0.519059 12.8948 0.207417 0.151623 0.044311
343 1 1 16.0729 0.602634 11.9803 0.0636224 0.0659508 -0.10071
344 1 1 17.7199 2.21215 15.9535 0.00774627 0.170832 -0.01868
345 1 3 17.1708 1.59894 15.3608 -0.189031 0.0511004 0.194456
346 1 1 16.9454 1.0313 14.6053 -0.160112 0.0917383 0.161737
347 1 1 16.0739 1.14214 14.3388 -0.102844 -0.194417 -0.0622111
348 1 1 17.9831 3.44223 16.7533 -0.0402721 0.104646 -0.176171
349 1 3 17.7161 4.32833 17.1183 0.334267 0.177049 -0.031904
350 1 1 17.4108 5.24498 17.2736 0.0505796 0.0934473 0.0704955
351 1 1 17.2207 8.35898 16.5595 -0.0937256 0.0135845 -0.0784411
352 1 1 16.9466 9.01728 16.1909 -0.0565056 -0.152237 -0.174008
353 1 3 16.4386 9.71326 15.6994 -0.0409792 -0.0321798 0.0772535
354 1 1 16.0198 10.3246 15.0384 -0.00936618 0.000899635 -0.00666588
355 1 1 15.5774 10.9442 14.3537 -0.00324978 0.0148326 0.0100542
356 1 1 15.0865 11.339 13.6805 -0.0942909 -0.0105265 -0.0230777
357 1 3 14.441 11.5787 13.0067 -0.154018 0.0785483 0.0511558
358 1 1 13.6883 11.7228 12.2338 -0.0102466 0.101207 -0.18987
359 1 1 12.9024 11.7401 11.5218 0.222406 -0.111768 0.0642698
360 1 1 17.2924 6.37971 17.206 -0.0623324 0.120735 -0.0177427
361 1 3 16.9344 7.51427 17.0744 -0.0232683 0.109929 -0.130748
362 1 1 15.3367 1.04 11.2505 -0.0195073 0.113071 0.18019
363 1 1 14.9499 1.36122 10.5927 0.0841616 -0.00902528 -0.0497409
364 1 1 14.2681 1.8981 10.1359 0.0825018 -0.035044 0.122554
365 1 3 13.8941 2.50715 9.44152 0.0787278 0.0474845 0.0648483
366 1 1 12.0876 11.6716 10.8082 0.153298 0.0214733 0.15156
367 1 1 12.2548 11.1051 10.0824 -0.106211 -0.177786 0.00200621
368 1 1 12.2932 10.4446 9.38843 -0.0893515 -0.143874 0.00923445
369 1 3 13.5397 3.18214 8.93612 -0.182898 -0.0793724 -0.0880163
370 1 1 12.5637 9.66115 8.86364 -0.0764465 -0.0522867 0.0948366
371 1 1 12.5859 8.78431 8.47669 -0.0598894 0.0337884 0.0162635
372 1 1 12.6821 7.81918 8.14755 0.00792663 -0.0655242 0.00703672
373 1 3 13.3575 3.94269 8.50543 0.0842651 0.0993163 -0.128967
374 1 1 13.1912 4.88285 8.14192 0.223357 -0.0522481 0.0932847
375 1 1 13.1316 5.85496 7.92726 0.106591 0.0759571 -0.111888
376 1 1 12.901 6.84162 8.00404 -0.0571456 0.163451 0.131426
377 1 3 17.1933 2.80002 16.4817 -0.109048 0.167043 -0.0623728
378 1 1 15.7085 0.832388 13.4922 0.0599032 -0.00907639 0.223069
379 1 1 15.6446 0.751495 12.7836 -0.0210252 -0.0278067 0.0623254
380 1 1 15.0051 0.950267 12.176 -0.0689885 -0.100419 0.0754332
381 1 3 16.6328 2.04063 15.889 -0.11713 -0.0623469 0.12637
382 1 1 16.3119 1.49833 15.1919 0.0430604 -0.197367 -0.268104
383 1 1 15.4187 1.49455 14.8461 0.0894843 0.00201953 0.0998445
384 1 1 15.3707 1.17799 14.0931 -0.0638087 -0.0541403 -0.0639116
385 1 3 17.0629 3.79925 16.9628 0.00174412 -0.0116825 0.00802365
386 1 1 16.7447 4.69848 17.2759 0.070201 0.121443 -0.0246605
387 1 1 16.5208 5.61492 17.4328 0.112655 -0.0144783 -0.0982561
388 1 1 16.5439 8.37212 16.7566 0.00653901 0.0399477 -0.0114921
389 1 3 16.035 9.11937 16.3977 0.0947765 -0.0262577 -0.0259817
390 1 1 15.5591 10.008 15.8643 0.00701209 0.0257036 -0.0143785
391 1 1 15.1451 10.6172 15.2318 0.0464828 -0.132955 -0.126794
392 1 1 14.6021 11.2416 14.6247 -0.0364052 0.012353 -0.0754986
393 1 3 14.1172 11.5691 13.9564 0.0481559 -0.0213009 0.00100163
394 1 1 13.4364 11.8307 13.172 -0.0473309 0.112605 0.0293226
395 1 1 12.6951 11.9697 12.3767 -0.0359368 0.0939706 -0.114271
396 1 1 11.9055 12.0773 11.6859 0.0115407 0.0889083 -0.0925852
397 1 3 16.2451 6.62835 17.4331 -0.149667 -0.146754 0.128449
398 1 1 15.965 7.64594 17.2667 -0.156417 0.159785 -0.167657
399 1 1 14.4681 1.27348 11.5561 -0.0834967 -0.0236026 -0.0815286
400 1 1 13.9328 1.70546 10.8948 -0.199238 -0.0100828 -0.205229
401 1 3 13.4651 2.17942 10.2834 0.0193537 0.184552 -0.0209502
402 1 1 11.1238 12.0406 11.0551 -0.0360259 -0.0299261 -0.0194841
403 1 1 13.015 2.80101 9.62187 -0.00422724 -0.0930872 -0.0780968
404 1 1 11.2929 11.4929 10.2241 -0.0736204 -0.0782812 -0.0321059
405 1 3 11.3282 10.7943 9.53642 0.0418945 0.0594652 0.0794588
406 1 1 11.526 10.0141 8.97966 0.153392 -0.0820773 -0.115991
407 1 1 12.6571 3.5486 9.05376 -0.0910182 0.0618566 0.0644996
408 1 1 11.68 9.16364 8.66555 -0.0281948 0.0309737 -0.0307367
409 1 3 11.805 8.25283 8.3659 -0.0245126 -0.103428 -0.118469
410 1 1 11.9354 7.18756 8.16133 -0.00425498 -0.145154 -0.0619886
411 1 1 12.3823 4.33089 8.57933 0.174844 -0.0602159 -0.0429454
412 1 1 12.2905 5.22381 8.25566 0.0706101 -0.0544205 -0.0394278
413 1 3 12.1042 6.23358 8.0535 -0.172165 -0.0521831 0.1577
414 1 1 16.1839 2.54373 16.2871 -0.0327652 -0.0223948 -0.118022
415 1 1 16.1744 3.2346 16.7603 0.0336229 -0.0602542 -0.0290985
416 1 1 14.7616 1.00857 13.284 -0.0502383 0.245964 0.0430575
417 1 3 14.0992 1.25004 12.5759 -0.0315455 0.0562221 -0.0036175
418 1 1 15.6675 2.02986 15.7611 0.0705477 -0.0639441 -0.0647146
419 1 1 14.8714 1.86436 15.2464 0.0744986 0.183574 -0.204121
420 1 1 14.5405 1.46197 14.375 -0.0296809 -0.0390702 0.0261661
421 1 3 16.1254 3.985 17.1753 0.103836 0.0577664 0.116329
422 1 1 15.8437 4.93665 17.4445 0.102404 0.147876 0.0222764
423 1 1 15.6562 5.96713 17.6171 -0.0748621 0.0618535 0.0915623
424 1 1 15.5506 8.56738 17.0249 0.0104729 -0.0992084 0.0770875
425 1 3 15.2408 9.44892 16.5112 0.109905 -0.187734 -0.145472
426 1 1 14.726 10.2849 16.0413 0.0848617 0.0145401 0.0288277
427 1 1 14.2327 10.912 15.4541 -0.0887538 -0.0685936 -0.105665
428 1 1 13.6054 11.4614 14.8387 -0.0676845 0.110779 -0.134014
429 1 3 11.0211 12.3926 11.9112 -0.135575 -0.0504353 -0.0416043
430 1 1 13.1489 11.8079 13.9691 -0.0808292 -0.00556098 -0.00194994
431 1 1 12.4781 12.093 13.3087 0.162955 0.0556468 0.054839
432 1 1 11.7876 12.3302 12.5276 -0.0830636 -0.0103014 -0.109403
433 1 3 15.3694 6.94869 17.673 0.107221 0.100228 0.181794
434 1 1 15.0424 7.98797 17.4741 0.0720459 0.0759995 -0.0319138
435 1 1 13.5678 1.54871 11.8824 -0.139317 0.0266485 0.0766429
436 1 1 13.0286 2.04895 11.0964 -0.00762809 0.0734699 -0.00113059
437 1 3 12.5743 2.59386 10.3143 -0.0141964 0.0191402 -0.0430527
438 1 1 10.2193 12.3096 11.2449 -0.107246 -0.0182376 -0.0808119
439 1 1 10.3825 11.7933 10.3775 -0.0361458 -0.0122449 -0.108117
440 1 1 12.0139 3.21856 9.71715 -0.107372 -0.0199087 0.0477095
441 1 3 10.3977 11.0672 9.69224 0.0513133 0.00492953 -0.051557
442 1 1 10.4768 10.2462 9.14853 -0.0733725 0.232803 0.0559735
443 1 1 10.7308 9.44763 8.76816 0.00335267 -0.0396902 -0.0206518
444 1 1 11.6701 3.87579 9.2334 0.0706272 -0.022355 0.0790145
445 1 3 10.8892 8.53543 8.53909 -0.032957 -0.128535 0.0845678
446 1 1 11.0572 7.56971 8.36749 0.027686 0.152031 0.132116
447 1 1 11.1126 6.51139 8.29283 -0.0167332 -0.0452606 0.0146868
448 1 1 11.4522 4.70307 8.80637 -0.222623 -0.153673 0.0109958
449 1 3 11.3545 5.59689 8.41335 -0.0323367 0.0453572 -0.142699
450 1 1 15.484 2.77514 16.3687 -0.158211 -0.0535606 -0.133042
451 1 1 15.2966 3.49969 16.9129 0.107138 -0.0846793 0.280287
452 1 1 13.7638 1.45875 13.6128 -0.133395 -0.0957474 0.0193296
453 1 3 13.2638 1.60478 12.7649 -0.124527 0.113906 -0.0303409
454 1 1 14.6873 2.37855 15.8744 0.136969 0.0249674 -0.137276
455 1 1 14.0863 2.03922 15.2388 0.0657092 -0.0304968 0.0642221
456 1 1 13.489 1.80348 14.555 -0.181184 -0.105038 -0.0122866
457 1 3 15.2192 4.37181 17.3408 -0.00343732 0.0381474 0.0458574
458 1 1 14.9346 5.29107 17.6641 0.190678 0.0223794 -0.100882
459 1 1 14.7358 6.22471 17.8673 -0.136386 -0.0802978 0.133993
460 1 1 14.7183 8.90348 17.155 0.0130116 0.126455 -0.166958
461 1 3 14.3714 9.76657 16.6941 -0.125975 -0.0842058 0.137826
462 1 1 13.8068 10.5349 16.2135 0.0486726 -0.105052 -0.0423569
463 1 1 13.2713 11.1383 15.6752 0.0414387 -0.187034 0.0538317
464 1 1 12.7009 11.7068 14.9327 -0.202957 0.0591492 0.10132
465 1 3 10.0804 12.6802 12.13 0.0909155 0.0963237 0.0579632
466 1 1 10.8612 12.7021 12.7111 -0.109486 -0.0412422 0.114092
467 1 1 12.1456 12.1109 14.2791 -0.0883402 -0.0264169 0.0151531
468 1 1 11.5581 12.4481 13.5421 0.0928954 0.0857302 -0.121389
469 1 3 14.5339 7.28412 17.8384 0.0725509 0.00524094 -0.0402877
470 1 1 14.1256 8.29254 17.6689 0.0365514 -0.095729 0.0661848
471 1 1 12.6254 1.9016 11.9626 -0.0111959 -0.109162 -0.0375047
472 1 1 12.1487 2.317 11.196 0.0689498 0.0685518 0.100044
473 1 3 11.5936 2.82552 10.593 0.12378 0.0537352 0.124788
474 1 1 9.34606 12.5734 11.4352 0.0268091 -0.17537 0.0451419
475 1 1 9.4277 12.0369 10.5913 -0.0991946 -0.148106 0.0107487
476 1 1 9.4472 11.3056 9.89358 -0.151145 -0.115138 0.0849149
477 1 3 11.1237 3.41512 10.0599 -0.016254 0.046239 -0.0301607
478 1 1 9.58791 10.6015 9.38591 0.099493 0.0565638 -0.111878
479 1 1 9.6509 9.63531 8.95377 0.0636113 -0.0910994 0.0127719
480 1 1 9.93056 8.84082 8.66441 -0.091312 0.0839529 0.0347484