ITEM: TIMESTEP
100000000
ITEM: NUMBER OF ATOMS
61833
ITEM: BOX BOUNDS pp pp pp
0 62
0 62
0 62
ITEM: ATOMS id mol type x y z vx vy vz 
1 1 3 47.6164 42.7456 48.2958 -0.143948 -0.00857862 0.0572682
2 1 1 47.4431 41.9348 48.6366 0.0399746 -0.0863351 0.0748977
3 1 3 46.858 42.3577 48.1212 0.106901 0.140461 0.022284
4 1 1 46.6409 41.5773 48.5305 0.223301 -0.0775657 -0.151171
5 1 3 47.0272 43.2714 47.8025 -0.0681135 -0.108134 0.155171
6 1 1 45.9436 42.1662 48.0072 0.00837214 -0.102078 0.122362
7 1 3 45.5343 41.4606 48.5454 -0.092699 0.124274 0.0596519
8 1 1 48.2412 42.5279 48.833 -0.0969171 0.040837 -0.0856026
9 1 3 48.1233 41.7074 49.41 -0.0979424 0.0563751 0.217869
10 1 1 47.2678 41.2602 49.1948 -0.0521236 -0.0889859 0.151817
11 1 3 46.3414 41.0497 49.1234 0.0790316 0.0290153 -0.116149
12 1 1 45.5563 40.8459 49.3671 -0.124626 -0.0528379 0.0192072
13 1 3 48.3005 43.3986 48.4614 -0.123539 0.0172743 0.178687
14 1 1 47.7151 43.5277 48.0306 -0.022358 0.18896 -0.0164588
15 1 3 47.4277 44.1211 47.7561 -0.0594585 -0.0579053 0.132248
16 1 1 46.2222 42.9618 47.6932 0.0955283 -0.0636791 0.169375
17 1 3 46.4305 43.925 47.5069 -0.147604 -0.0772149 0.0337994
18 1 1 44.961 41.0319 49.1189 0.0657341 0.0998757 0.045827
19 1 3 44.5634 41.5411 48.5855 -0.0100462 -0.0920748 0.19834
20 1 1 44.8901 42.0229 48.041 -0.107895 0.12946 0.0857926
21 1 3 45.2086 42.7729 47.6663 0.166115 -0.104349 -0.153886
22 1 1 48.7845 43.886 48.7603 -0.198779 -0.11063 -0.0957879
23 1 3 48.8498 42.9582 49.1739 -0.17995 0.0645457 0.0471554
24 1 1 48.7532 42.2278 49.6635 0.0250295 -0.033092 0.13205
25 1 3 48.6452 41.6544 50.2285 -0.0307085 -0.101096 0.119526
26 1 1 47.8422 41.1013 50.126 0.0404524 0.114559 -0.116605
27 1 3 46.9874 40.7335 50.0042 -0.101448 0.101057 0.0975638
28 1 1 44.7979 40.6747 49.8125 -0.0325921 0.0383161 0.138811
29 1 3 46.2231 40.5283 50.0935 -0.164709 0.0735533 -0.0835732
30 1 1 45.4138 40.4105 50.2572 -0.0644931 0.0420787 0.0634461
31 1 3 48.2141 44.3306 48.1686 0.000533044 -0.0544679 -0.145858
32 1 1 47.5256 44.8757 47.817 -0.0446935 0.0946294 0.0410392
33 1 3 46.7173 44.7394 47.536 -0.0610889 -0.278712 -0.0597756
34 1 1 45.5268 43.751 47.4066 0.0317082 0.130382 0.0607693
35 1 3 45.9388 44.7192 47.3517 -0.0206807 0.00194056 -0.0880246
36 1 1 44.2849 41.0739 49.2972 -0.0622294 -0.0245585 -0.0518563
37 1 3 43.7289 41.6687 48.8686 -0.0232119 0.0141526 -0.108215
38 1 1 43.9629 40.7373 50.0847 0.00603708 0.00103302 -0.00614185
39 1 3 44.0094 42.2067 48.2589 0.0788509 0.122636 0.0413879
40 1 1 44.2366 42.7996 47.8116 0.0421822 0.00800262 -0.0777844
41 1 3 44.6212 43.6097 47.5022 0.174226 -0.00355259 -0.0587556
42 1 1 48.9815 44.5637 48.8158 0.064996 0.0148574 0.114008
43 1 3 49.4803 44.2109 49.4744 -0.0280979 0.0106201 0.113422
44 1 1 49.4095 43.4706 49.7008 0.0526079 -0.0134402 -0.0646716
45 1 3 49.2283 42.7656 49.8833 -0.113845 0.0631054 0.00172063
46 1 1 49.2745 42.3287 50.4919 0.113022 -0.0828192 0.0573573
47 1 3 49.1504 41.8095 51.0542 0.10364 -0.0745203 0.0802219
48 1 1 48.4035 41.1293 50.9816 0.00350144 -0.115221 -0.0754673
49 1 3 47.5307 40.6452 50.9294 0.0302391 0.0797284 -0.0577066
50 1 1 46.6945 40.3384 50.969 -0.125888 -0.0854559 0.0301964
51 1 3 44.5974 40.384 50.644 0.0686201 0.0198418 0.176373
52 1 1 45.8319 40.1937 51.0244 0.0724327 -0.140199 0.0134325
53 1 3 45.1093 40.205 51.0171 0.0245881 -0.125499 -0.0571959
54 1 1 48.6049 45.1159 48.4873 0.0405885 0.0933152 0.096225
55 1 3 49.2104 45.5068 49.1197 -0.0411406 0.0426622 0.00633384
56 1 1 48.0036 45.3538 48.0905 0.0669428 -0.087801 0.120585
57 1 3 47.2285 45.5305 47.7629 0.189805 -0.0617933 -0.117652
58 1 1 48.2199 46.1563 48.3668 0.0973232 0.188381 -0.0596178
59 1 3 46.2811 45.5941 47.4976 0.20583 0.0303442 0.00706548
60 1 1 44.9184 44.5822 47.3401 -0.00919688 -0.0658539 -0.125607
61 1 3 45.4039 45.5397 47.3613 -0.0233817 0.0506209 0.0813641
62 1 1 43.3835 42.1998 48.6069 -0.0368143 -0.20043 -0.132545
63 1 3 43.4511 41.2172 49.6019 0.0075744 -0.0124822 -0.0936795
64 1 1 42.9543 41.9122 49.2039 -0.160887 -0.131501 0.0215012
65 1 3 43.8392 40.4564 50.9586 -4.35019e-05 -0.0139829 -0.123946
66 1 1 43.2155 40.9623 50.4667 0.00175101 0.0681092 -0.0565593
67 1 3 43.4038 42.8177 48.1585 0.00752724 0.12429 -0.0633054
68 1 1 43.593 43.5997 47.734 -0.100286 -0.127786 0.0490461
69 1 3 44.0404 44.44 47.4731 -0.0221088 0.0161036 0.0301139
70 1 1 49.6069 44.8108 49.4956 0.00598082 0.051993 0.0215341
71 1 3 49.874 44.2821 50.1327 -0.0531828 0.0981356 -0.0488174
72 1 1 49.817 43.3222 50.6446 0.140591 0.0515055 -0.130691
73 1 3 49.7334 42.6289 51.3378 -0.0233322 -0.0135119 -0.158301
74 1 1 49.5065 42.1067 51.8714 -0.02201 0.0906127 0.0504104
75 1 3 48.9225 41.3569 51.841 0.0855151 -0.116669 0.0684649
76 1 1 48.0766 40.7287 51.8004 0.0191572 -0.111546 0.211584
77 1 3 47.1017 40.2873 51.7695 0.121348 -0.157294 0.0627479
78 1 1 46.3257 40.0602 51.7743 0.0637932 -0.0122624 -0.0802592
79 1 3 44.5218 40.161 51.4749 -0.0485594 0.0263026 0.026971
80 1 1 45.396 39.9955 51.9434 -0.0825534 0.0166631 -0.147041
81 1 3 43.7701 40.3036 51.8745 -0.0193447 -0.112667 -0.100138
82 1 1 49.7202 45.8531 49.852 0.0727406 -0.0615224 -0.0633931
83 1 3 48.792 46.2512 48.8579 0.0639774 0.0773532 0.233017
84 1 1 49.2947 46.2742 49.4659 0.00341735 0.0210868 0.0881971
85 1 3 47.7152 46.2886 48.0743 0.0818763 -0.197311 -0.0260458
86 1 1 46.7872 46.3528 47.7155 -0.11946 0.0615927 -0.117214
87 1 3 48.0978 46.9078 48.525 -0.0574885 0.0560694 -0.361845
88 1 1 45.7189 46.3851 47.5253 0.00842208 -0.053383 -0.0267867
89 1 3 44.4388 45.391 47.4664 0.0605009 0.171922 0.135904
90 1 1 44.8301 46.4078 47.5587 -0.0897395 0.108445 0.0926032
91 1 3 42.6337 42.7301 48.7222 -0.102484 0.0755898 0.107147
92 1 1 42.6356 41.5994 49.9587 -0.230339 -0.101305 -0.0446539
93 1 3 42.1984 42.3198 49.5572 0.115308 0.123412 0.0767963
94 1 1 43.0611 40.7245 51.34 0.0421623 0.111292 -0.131573
95 1 3 42.4273 41.3496 50.7396 0.0211019 -0.0426243 0.0344211
96 1 1 42.7062 43.5713 48.1971 -0.00757135 0.0900069 0.0070567
97 1 3 43.0602 44.3908 47.8416 0.0544682 -0.00312205 0.173103
98 1 1 43.5431 45.3766 47.6951 -0.0685703 -0.0643256 0.103791
99 1 3 50.0583 45.2085 50.3261 0.123572 0.102921 0.176615
100 1 1 50.2295 44.4225 50.9761 -0.158823 -0.19296 0.120044
101 1 3 50.0976 43.6339 51.6409 -0.0186867 0.0576677 0.00758214
102 1 1 49.9923 43.0358 52.2797 0.0805923 0.0974497 0.144509
103 1 3 49.221 41.623 52.4813 0.00324439 -0.0109857 0.110754
104 1 1 49.5782 42.2338 52.6718 0.0217584 0.00593313 0.0322338
105 1 3 48.5542 41.0365 52.76 -0.09941 0.045986 0.0736075
106 1 1 47.5189 40.388 52.5404 -0.163754 -0.0282947 -0.166339
107 1 3 46.6669 40.1442 52.6536 -0.00548421 0.123303 0.0159737
108 1 1 46.0705 39.9953 52.561 -0.0379889 0.148187 -0.119472
109 1 3 42.941 40.6043 52.2211 0.0352896 -0.0900684 0.156493
110 1 1 44.567 40.0753 52.4399 0.126044 -0.0663048 -0.0905935
111 1 3 45.3911 40.0193 52.9726 -0.073812 -0.00172096 -0.177333
112 1 1 43.6626 40.2843 52.7586 0.178041 0.03652 -0.16765
113 1 3 49.4945 46.7164 50.0313 0.161674 0.10441 0.0305996
114 1 1 49.9988 46.1319 50.5641 -0.198314 -0.0908326 0.00704059
115 1 3 48.781 47.2092 49.3661 -0.0885145 0.0687663 -0.0829814
116 1 1 49.0605 47.6102 50.1205 -0.0611076 0.139399 0.0649234
117 1 3 47.2942 47.2127 48.1766 0.0223201 -0.0211145 0.0782693
118 1 1 46.3229 47.2063 47.8848 0.0183077 -0.0387107 -0.109244
119 1 3 47.8296 47.7899 48.8186 0.00254031 -0.111509 0.16487
120 1 1 45.2565 47.2281 47.7551 0.0104287 -0.10225 0.0190984
121 1 3 43.963 46.3206 47.7784 -0.0834913 0.0272537 0.127646
122 1 1 44.4774 47.2652 47.9233 0.0230848 -0.0527104 -0.0378894
123 1 3 41.9658 43.5821 48.7809 -0.164057 -0.259464 0.045164
124 1 1 41.8859 43.0438 49.2135 0.00537193 0.0721121 0.181792
125 1 3 41.9088 42.0718 50.2473 -0.00088722 -0.0860396 0.0931439
126 1 1 41.5797 42.8802 49.7954 -0.282838 -0.0155881 -0.0587153
127 1 3 42.2183 41.1016 51.6735 0.0960036 0.048694 -0.154963
128 1 1 41.7307 41.7157 51.2225 0.0441595 -0.0684426 0.0318192
129 1 3 42.1945 40.8684 52.525 0.140614 0.0666244 -0.0250297
130 1 1 43.1821 46.2495 48.0687 -0.00336706 -0.153927 0.0600619
131 1 3 42.2078 44.3154 48.3719 0.00759529 0.0947871 0.0507377
132 1 1 42.6486 45.5231 48.1741 -0.11944 -0.0270773 0.101185
133 1 3 50.2685 45.4295 51.1374 0.178142 -0.141458 0.0668572
134 1 1 50.2625 44.6177 51.8241 0.00122579 0.0624879 -0.00815474
135 1 3 49.7888 42.8179 53.1724 0.022551 -0.0331619 0.0555234
136 1 1 50.1487 44.0328 52.4527 -0.0749836 -0.0203198 0.0402839
137 1 3 50.0163 43.6296 53.038 0.00632363 0.0608751 -0.0634853
138 1 1 49.0864 41.6751 53.2366 -0.0270004 0.106279 -0.0142549
139 1 3 49.4563 42.4106 53.5726 -0.0788542 -0.0450301 0.163874
140 1 1 48.3998 41.1243 53.7012 0.0423679 0.0209232 0.0584967
141 1 3 47.6563 40.5739 53.397 0.077066 -0.0142933 0.141044
142 1 1 47.0487 40.2718 53.1584 -0.0250281 -0.0237324 0.0419756
143 1 3 46.2207 40.1517 53.5102 0.123163 0.084031 -0.135778
144 1 1 42.8562 40.5079 53.1885 -0.108914 -0.165915 -0.0314667
145 1 3 44.5565 40.1287 53.2943 -0.10858 0.079892 0.112872
146 1 1 45.2366 40.1158 53.6313 -0.0241671 -0.0210553 0.0770539
147 1 3 43.6427 40.3054 53.699 0.00451965 0.103485 -0.0439292
148 1 1 49.64 47.0402 50.7716 0.154881 -0.070773 0.096812
149 1 3 50.0969 46.4091 51.4015 0.0702005 -0.00428264 0.198563
150 1 1 48.3262 48.18 49.6132 -0.0685294 -0.00874154 -0.00368525
151 1 3 49.2951 47.8006 50.9892 -0.100005 -0.0017094 -0.0687386
152 1 1 48.6424 48.4874 50.4934 0.0833881 -0.0987468 0.00525068
153 1 3 46.7645 47.9958 48.4856 -0.0214961 0.0278749 0.108089
154 1 1 45.9086 48.0527 48.2794 -0.03639 0.172215 0.0968472
155 1 3 47.3829 48.4286 49.085 -0.174162 0.0356776 -0.0510528
156 1 1 44.8929 47.9504 48.2791 -0.153552 -0.0512146 0.00537429
157 1 3 43.5525 47.0902 48.1812 -0.031389 0.0254044 -0.0282601
158 1 1 44.1484 47.7158 48.3356 -0.0581775 0.0236435 -0.0491003
159 1 3 41.6523 44.2797 48.9072 -0.0646683 -0.011744 -0.0794633
160 1 1 41.2992 43.7165 49.4599 0.118326 -0.127504 0.126476
161 1 3 41.0447 43.235 50.2378 0.00117324 -0.0457333 -0.00812638
162 1 1 41.2197 42.4882 50.8033 0.110945 -0.0146053 0.132886
163 1 3 41.4975 41.4145 52.0652 -0.0773417 0.0790515 -0.0625025
164 1 1 41.1467 41.9652 51.7129 -0.268162 0.0659658 0.191088
165 1 3 41.9684 40.8417 53.4328 0.00273267 -0.141111 0.152146
166 1 1 41.5851 41.1288 52.8011 0.028351 -0.127974 0.0867711
167 1 3 42.5 46.4251 48.45 -0.0510099 0.00561264 -0.265989
168 1 1 42.9363 47.0078 48.4419 -0.113485 -0.0376894 0.126108
169 1 3 41.7853 45.122 48.7349 0.118277 -0.0226768 0.0550556
170 1 1 41.9012 46.087 48.7993 0.142426 -0.129015 -0.100703
171 1 3 50.2161 45.6792 52.1054 -0.148153 -0.00880407 -0.0410234
172 1 1 50.2554 45.074 52.7784 -0.133094 -0.0362352 -0.0504149
173 1 3 49.7388 43.1777 53.7194 0.1225 -0.134119 -0.021978
174 1 1 50.1076 44.5041 53.4195 0.00100457 -0.0802958 0.0753544
175 1 3 49.9418 43.8273 53.7555 -0.0185852 -0.142703 -0.225361
176 1 1 49.3115 42.7895 54.3201 -0.0550646 0.112311 0.185093
177 1 3 48.923 41.8842 54.0884 0.115608 0.0212047 0.00972882
178 1 1 48.3237 41.5917 54.626 0.105575 -0.0297013 0.0113895
179 1 3 47.6697 40.9169 54.3485 0.135123 0.0997417 -0.0987654
180 1 1 46.9841 40.4423 53.9678 0.0419801 0.0399668 -0.119323
181 1 3 46.2742 40.377 54.436 0.148241 0.00427862 -0.105436
182 1 1 45.6309 40.2603 54.3258 -0.0378581 0.0338526 -0.102645
183 1 3 42.7155 40.5087 54.0941 0.00641037 -0.16546 -0.191705
184 1 1 41.7933 40.7259 54.2187 0.0213104 -0.120497 0.0902103
185 1 3 44.5582 40.2223 54.239 -0.0462042 -0.0341676 0.184364
186 1 1 43.5426 40.3015 54.4975 -0.0574024 -0.016755 -0.109069
187 1 3 49.7269 47.2822 51.6588 -0.121036 -0.00278242 0.0371906
188 1 1 50.0198 46.59 52.3948 -0.0026991 -0.0949288 -0.189132
189 1 3 47.7847 48.8433 49.8584 0.102376 -0.0299044 -0.0710087
190 1 1 47.9226 49.0613 50.6442 -0.0371646 0.183031 0.00853347
191 1 3 49.346 47.9348 51.7093 -0.0495925 -0.00984576 0.0459377
192 1 1 49.0081 48.3691 51.3993 -0.0765601 -0.0248136 -0.105682
193 1 3 48.4406 48.8719 51.3204 -0.0516921 0.00926272 -0.128594
194 1 1 46.327 48.71 49.0179 -0.0433476 -0.0724548 0.0878704
195 1 3 45.3237 48.7135 48.9393 -0.128798 -0.165249 0.0656232
196 1 1 46.8287 49.148 49.6126 -0.00151427 -0.053924 -0.120424
197 1 3 44.2416 48.38 48.9113 0.0696851 0.0341324 0.000584785
198 1 1 43.4515 47.768 48.7498 -0.0862322 0.106352 -0.094972
199 1 3 41.162 44.6943 49.329 0.0202493 0.0824871 0.0196017
200 1 1 40.813 44.4404 49.8425 -0.019843 0.0446968 0.0685332
201 1 3 40.6948 43.8225 50.3575 0.123524 0.114034 0.0648401
202 1 1 40.6066 43.2036 50.9318 0.182464 0.0699912 0.0387709
203 1 3 40.574 42.5251 51.8007 -0.0028494 0.0795207 -0.0142455
204 1 1 40.7952 41.7513 52.5981 -0.0225515 -0.0324559 -0.0207193
205 1 3 41.0289 41.206 53.622 -0.114571 -0.0901138 -0.0306333
206 1 1 42.2143 46.9378 48.981 -0.0101229 -0.0290523 -0.164126
207 1 3 42.7114 47.6938 49.1461 0.0749794 0.0529241 -0.0143482
208 1 1 41.2442 45.6153 49.3245 -0.0725651 -0.0605783 0.151634
209 1 3 41.5103 46.5693 49.4409 0.0716745 0.0506274 0.112606
210 1 1 50.1381 45.9669 53.17 -0.0262815 0.043558 -0.0768857
211 1 3 50.0855 45.3448 53.727 0.000554179 0.000660659 0.11326
212 1 1 49.655 43.5919 54.3442 -0.0247398 0.0874275 0.200354
213 1 3 49.8461 44.6652 54.4143 0.158832 0.0979826 0.192533
214 1 1 49.1615 43.3211 55.0318 -0.156671 0.00709639 -0.123459
215 1 3 48.8087 42.3859 54.8866 0.0429658 0.0365898 -0.106161
216 1 1 41.2064 40.8842 54.6653 0.0962757 0.0195059 -0.0932211
217 1 3 42.0683 40.5583 54.9828 -0.141848 -0.108677 -0.139405
218 1 1 48.147 42.1354 55.4474 -0.0545129 -0.0426504 0.0812854
219 1 3 47.5996 41.4463 55.2909 0.0496131 0.107185 0.111856
220 1 1 46.893 40.7711 55.0278 -0.0476193 0.129946 0.0132644
221 1 3 45.9857 40.4432 55.1604 0.174495 -0.0299453 0.0153976
222 1 1 45.1064 40.3233 55.1578 -0.0393718 0.0998298 0.178238
223 1 3 43.0421 40.4347 55.0218 -0.0511493 -0.0351791 0.120333
224 1 1 44.0893 40.3507 55.2017 0.123297 0.0478811 -0.0210875
225 1 3 49.8464 46.7391 53.4772 -0.16097 -0.0313591 0.115431
226 1 1 49.652 47.5976 52.6504 0.00115627 0.264149 0.00583894
227 1 3 47.1071 49.3991 50.4211 -0.0564564 0.200407 -0.250733
228 1 1 47.4264 49.4544 51.1058 0.0287992 0.0541548 0.107506
229 1 3 47.913 49.2614 51.4364 -0.0435122 -0.0369742 0.213456
230 1 1 49.0276 48.4347 52.3336 -0.0869862 0.040004 0.0523142
231 1 3 48.4799 48.9587 51.9374 -0.0852427 0.102676 0.0672945
232 1 1 45.8427 49.2194 49.6777 0.100543 -0.106016 -0.0181762
233 1 3 44.8297 49.1379 49.6783 0.0551439 0.130564 -0.142407
234 1 1 46.2214 49.5925 50.3892 -0.0600512 -0.000705598 0.0979877
235 1 3 44.0079 49.0041 49.9087 0.200125 -0.0718502 0.0521988
236 1 1 43.2328 48.3545 49.4438 -0.0265893 -0.168953 0.0671141
237 1 3 40.7714 45.2316 49.9003 0.0823996 -0.0782771 -0.0913935
238 1 1 40.3611 44.7568 50.5576 0.0102991 -0.0632671 0.0523848
239 1 3 40.1668 43.9279 51.2 0.0426172 -0.0273969 -0.0122908
240 1 1 40.107 43.2372 51.8786 0.0892291 0.155876 -0.138032
241 1 3 40.1199 42.546 52.6981 -0.0706462 -0.0277981 0.105399
242 1 1 40.1802 41.873 53.5517 0.0337955 0.114656 0.106624
243 1 3 40.4241 41.3765 54.4621 0.0145983 0.0169979 -0.051893
244 1 1 42.0704 47.4851 49.6255 -0.0485687 0.127974 0.0984734
245 1 3 42.6012 48.2049 49.9502 0.108791 -0.217821 -0.097682
246 1 1 40.8934 46.2687 50.001 -0.00527082 0.149863 0.0820854
247 1 3 41.243 47.1864 50.1751 0.083164 0.0342849 0.0579206
248 1 1 49.8835 46.1328 54.0579 -0.0238174 -0.0593614 0.0363583
249 1 3 49.8057 45.559 54.5249 -0.0021597 0.0801288 -0.0341846
250 1 1 49.4983 44.2425 55.068 0.180906 0.106074 0.00917907
251 1 3 49.5093 45.2365 55.1337 0.161175 -0.157544 -0.0421808
252 1 1 48.8534 43.8985 55.7076 -0.0261508 0.0170838 0.234253
253 1 3 48.5845 42.93 55.614 -0.1958 0.0400963 -0.136964
254 1 1 40.6903 41.006 55.4192 0.0464274 -0.0196657 -0.123351
255 1 3 41.5681 40.6601 55.6355 -0.044749 -0.143814 0.00187361
256 1 1 42.5238 40.5209 55.8044 0.0193461 -0.125982 0.155017
257 1 3 47.9675 42.653 56.1384 0.0225146 0.0243645 -0.0251446
258 1 1 47.4432 41.919 56.0384 0.0833477 0.085676 -0.0565758
259 1 3 47.0012 41.3071 55.802 -0.0494788 -0.0505832 -0.0236663
260 1 1 46.334 40.8817 56.0114 -0.0310153 -0.0820515 -0.00255711
261 1 3 45.485 40.5906 56.0759 0.126823 0.127928 -0.0107387
262 1 1 44.5611 40.4493 55.979 -0.145611 0.113439 0.0851677
263 1 3 43.5367 40.4105 55.8323 0.00832394 0.0231647 -0.03584
264 1 1 49.587 46.7788 54.2374 0.0282599 -0.17854 0.144442
265 1 3 49.4398 47.4585 53.8151 -0.0530874 -0.112668 0.0276918
266 1 1 49.1231 48.194 53.2506 0.110729 0.0479405 -0.0137182
267 1 3 46.4969 49.8228 51.3118 0.104407 -0.00132015 0.245838
268 1 1 47.236 49.6267 51.8907 0.0828974 0.0912459 -0.166849
269 1 3 47.8607 49.3473 52.301 -0.0295631 0.0121763 -0.0367085
270 1 1 48.5233 48.915 52.8271 -0.148021 -0.0277614 0.0783041
271 1 3 45.3894 49.5738 50.3998 0.0322592 -0.00311554 -0.215012
272 1 1 44.6718 49.3956 50.3294 0.0248367 -0.0588396 -0.116117
273 1 3 45.7064 49.8141 51.0065 0.137981 -0.0617935 -0.0423093
274 1 1 44.0477 49.3231 50.6541 -0.0470405 -0.162707 -0.0746889
275 1 3 43.2454 48.8703 50.3349 0.196862 0.00143344 -0.146336
276 1 1 40.3874 45.8066 50.5946 -0.0455796 0.110046 0.0875829
277 1 3 40.0327 45.5096 51.1945 -0.0523933 0.121811 -0.00163229
278 1 1 39.8365 44.7818 51.5273 0.215954 0.105812 0.102453
279 1 3 39.6422 44.0599 52.074 0.0215425 -0.0625442 -0.0602806
280 1 1 39.6406 43.3564 52.6951 -0.113879 0.0936998 -0.00843119
281 1 3 39.5456 42.6308 53.4983 0.0688706 -0.140489 -0.158524
282 1 1 39.7039 41.9717 54.3901 0.0142911 0.103201 -0.0469692
283 1 3 39.8511 41.5361 55.2641 -0.118167 -0.228051 -0.158563
284 1 1 41.7608 47.932 50.3602 0.00484304 0.0468337 -0.198956
285 1 3 42.3556 48.6077 50.7793 -0.0427651 -0.0049129 -0.0279327
286 1 1 40.6408 46.7525 50.7346 -0.192639 -0.170089 -0.0471173
287 1 3 41.1585 47.7321 50.834 -0.0833805 0.0642991 -0.0991462
288 1 1 49.4513 46.2067 55.0117 0.102582 0.00347171 0.0600727
289 1 3 49.1124 44.8308 55.6613 0.0664127 0.15787 0.200373
290 1 1 49.1176 45.5977 55.6085 0.0146484 -0.0225513 -0.0262197
291 1 3 40.101 41.1673 56.2495 -0.0669907 -0.109213 -0.126309
292 1 1 48.4724 44.4412 56.3895 -0.00313145 -0.00291961 0.0587176
293 1 3 48.2916 43.5062 56.3517 -0.0169343 0.0754992 -0.015859
294 1 1 40.9388 40.8049 56.3706 -0.220259 0.0377993 0.0645154
295 1 3 41.9724 40.6154 56.5174 0.10451 0.0727312 -0.0120542
296 1 1 42.9042 40.5281 56.6215 0.0511969 -0.00241468 -0.156197
297 1 3 47.6987 43.0827 56.8953 0.00111336 -0.0886785 0.0626299
298 1 1 47.3898 42.4359 56.6163 0.117572 -0.00422978 0.0230178
299 1 3 46.6278 41.7265 56.6528 0.0275495 -0.143463 -0.0759461
300 1 1 45.7837 41.1266 56.8531 0.11851 -0.0616102 -0.135703
301 1 3 44.8866 40.7655 56.8883 -0.00427481 -0.0165121 0.1559
302 1 1 43.8871 40.5847 56.7373 0.0140817 -0.206405 -0.00180227
303 1 3 48.4807 48.6509 53.7492 0.0184589 0.0259332 0.154384
304 1 1 49.2589 47.1392 54.6988 0.107058 0.110361 -0.00366535
305 1 3 48.9073 47.933 54.2363 0.111266 -0.249481 -0.00623949
306 1 1 45.597 49.9392 51.7005 0.0286427 -0.0447167 0.0117083
307 1 3 46.4579 49.9113 52.2134 -0.0264413 0.125203 -0.0749006
308 1 1 47.1881 49.6617 52.7883 -0.0569229 -0.0983071 0.0455911
309 1 3 47.8347 49.2814 53.2411 0.0791503 -0.0724759 0.0652494
310 1 1 44.8351 49.7492 51.1554 -0.0109142 -0.111858 -0.296239
311 1 3 43.866 49.5369 51.4894 0.287902 -0.077895 -0.0338418
312 1 1 43.0764 49.1903 51.2462 0.00399063 -0.078435 0.0494253
313 1 3 40.0521 46.3475 51.3344 0.058845 -0.0553297 -0.056225
314 1 1 39.6229 45.6009 51.862 0.116173 -0.0340378 -0.0366444
315 1 3 39.3477 44.8742 52.3386 -0.0355918 0.0688704 -0.136989
316 1 1 39.1891 44.1359 52.8814 -0.0555688 -0.0520006 -0.118072
317 1 3 39.0908 43.4615 53.5593 0.0749042 0.00507027 -0.0321373
318 1 1 39.0389 42.8057 54.2745 0.00782819 -0.0184209 -0.178165
319 1 3 39.1499 42.1324 55.2003 0.0755909 -0.0439034 -0.0732099
320 1 1 39.251 41.6243 56.0545 -0.0425373 0.18846 0.0389338
321 1 3 41.5516 48.3729 51.1344 -0.0777804 -0.0727905 0.0668244
322 1 1 42.0909 48.868 51.4199 -0.0358569 -0.0940283 -0.134754
323 1 3 40.499 47.3821 51.4229 -0.083933 0.180017 0.0133119
324 1 1 40.9094 48.0555 51.4803 -0.133201 -0.11244 0.0413667
325 1 3 48.9079 46.9573 55.4158 0.000821108 0.129118 0.194619
326 1 1 48.88 46.3797 55.7276 0.0685735 0.0497799 -0.0732452
327 1 3 48.5618 45.4823 56.3077 -0.0226846 0.0831958 0.0228075
328 1 1 48.0697 44.9096 56.9736 0.0647947 -0.00529909 0.0783635
329 1 3 39.4958 41.2261 56.952 -0.0462488 0.105599 0.00711982
330 1 1 40.3868 40.9609 57.1597 0.0132245 -0.0924771 0.0545525
331 1 3 47.8819 44.0728 57.1328 -0.054868 0.065155 0.0597631
332 1 1 41.3287 40.718 57.3131 0.151624 0.0595505 -0.122726
333 1 3 42.3568 40.6821 57.4482 0.0188856 -0.0357173 0.0709917
334 1 1 43.3083 40.7405 57.4837 0.00778573 -0.122927 -0.142341
335 1 3 47.3298 43.4308 57.4962 -0.0255765 -0.00926956 -0.124197
336 1 1 46.8906 42.5593 57.3849 -0.153017 -0.0788026 0.0446948
337 1 3 46.0836 41.8391 57.5679 -0.0902635 -0.0781647 -0.0382124
338 1 1 45.278 41.2356 57.6208 -0.00811368 -0.110369 0.0270353
339 1 3 44.2616 40.8886 57.6123 -0.0591995 -0.149549 -0.122363
340 1 1 45.0349 49.9597 52.1112 -0.202265 0.0415553 -0.0290691
341 1 3 47.7401 49.0798 54.1466 0.120554 -0.109561 0.0120915
342 1 1 48.112 48.5879 54.6462 -0.162109 0.0496535 -0.00984267
343 1 3 48.5474 47.7516 55.1306 0.0122357 0.0285096 0.155628
344 1 1 45.6343 50.0485 52.5747 0.05557 0.0664718 0.17698
345 1 3 46.3272 49.9589 53.2467 0.131284 -0.100438 0.126068
346 1 1 47.0433 49.6158 53.7877 -0.0494981 -0.00720946 0.0371791
347 1 3 46.9398 49.5501 54.5482 -0.0423042 -0.0554178 0.0899407
348 1 1 44.2097 49.7843 51.9325 -0.0519085 -0.0790697 -0.280311
349 1 3 43.3295 49.5804 52.072 0.0141287 0.246806 0.0519492
350 1 1 42.3546 49.3027 52.1446 -0.0619989 0.0177855 0.241729
351 1 3 39.9716 47.1287 51.8951 0.0194086 -0.00867668 -0.0380836
352 1 1 39.5052 46.4633 52.1488 0.131187 -0.04789 -0.0511591
353 1 3 39.0935 45.7078 52.648 -0.183094 -0.102649 0.00747425
354 1 1 38.7757 45.0479 53.1605 0.0827052 0.212116 0.029664
355 1 3 38.5603 44.2869 53.6382 -0.0702847 0.00574219 0.00710006
356 1 1 38.544 43.568 54.3187 -0.0492336 -0.0399876 0.0890208
357 1 3 38.4307 42.8426 55.0393 -0.0806184 0.0205646 0.0471731
358 1 1 38.49 42.2198 55.913 0.166805 -0.153574 0.0573292
359 1 3 38.6443 41.6917 56.8369 -0.159942 0.0199324 -0.134343
360 1 1 41.2713 48.8 52.0597 0.0993389 -0.0365893 0.0197419
361 1 3 40.2656 47.9931 52.1705 -0.206635 0.168844 0.0302034
362 1 1 48.4234 47.0401 55.9946 0.114736 0.00154335 0.107016
363 1 3 48.2529 46.4264 56.5424 -0.0381724 0.107017 0.106234
364 1 1 47.8416 45.7219 57.1567 -0.0230219 0.0493157 -0.192895
365 1 3 47.6089 44.9105 57.5892 -0.0132114 0.114824 -0.158082
366 1 1 38.8692 41.4103 57.7894 -0.0683796 0.0520249 0.0589621
367 1 3 39.7855 41.1249 57.9424 0.151053 0.0309143 -0.106893
368 1 1 40.7059 40.9614 58.1589 0.162751 -0.0307009 0.107747
369 1 3 47.2454 44.1065 57.9409 -0.0485766 0.112445 0.00263783
370 1 1 41.6459 40.8137 58.1925 0.108316 0.0565272 0.0957112
371 1 3 42.6814 40.8567 58.3358 0.0757567 0.0162096 0.107935
372 1 1 43.6769 41.0004 58.3846 -0.0608054 -0.0469877 0.0826997
373 1 3 46.8374 43.2928 58.0543 0.0632501 0.0170077 -0.0842241
374 1 1 46.1766 42.607 58.2759 0.0365788 0.0376119 0.121402
375 1 3 45.5143 41.8959 58.2895 0.0223435 0.00709477 0.061523
376 1 1 44.6603 41.3483 58.3807 -0.0919217 -0.00129674 0.225029
377 1 3 44.6133 50.0596 52.7691 0.0965162 -0.0372256 -0.107429
378 1 1 47.387 49.0306 55.0292 0.221943 -0.118362 0.0859444
379 1 3 47.8611 48.4259 55.3596 -0.109441 -0.110426 -0.0971382
380 1 1 47.8957 47.843 55.9927 -0.118572 0.108308 -0.0312377
381 1 3 45.4337 50.1355 53.5471 -0.115149 0.0867053 0.017422
382 1 1 46.1898 49.916 54.0751 -0.0382876 -0.285523 -0.168751
383 1 3 46.1461 49.7798 54.987 0.196368 0.203504 0.00807366
384 1 1 46.7756 49.411 55.2299 -0.00312417 0.0491806 0.0506212
385 1 3 43.589 49.9026 52.7559 0.0977465 -0.036995 -0.0156653
386 1 1 42.5895 49.6593 52.8259 -0.102156 -0.0586872 -0.114339
387 1 3 41.6088 49.4047 52.8147 0.0157027 0.0607221 0.0330055
388 1 1 39.5515 47.3703 52.5466 -0.0432122 0.162468 0.0693562
389 1 3 39.0037 46.6713 52.9596 -0.0442329 0.12896 -0.122963
390 1 1 38.5599 45.9182 53.4678 0.0208398 0.0246039 0.0523809
391 1 3 38.1092 45.1172 53.9149 -0.0994066 0.0101838 0.247425
392 1 1 37.9367 44.2926 54.5213 0.120669 -0.103567 -0.0123697
393 1 3 37.8204 43.6031 55.157 0.0774764 0.0444925 0.0728063
394 1 1 37.8263 42.918 55.886 0.0673365 0.197051 -0.0426332
395 1 3 37.8922 42.3166 56.8009 -0.0101057 -0.0206517 -0.045294
396 1 1 38.0469 41.8743 57.7234 -0.225449 -0.0662483 0.0843451
397 1 3 40.6627 48.902 52.8338 0.00668775 -0.0645544 0.0425515
398 1 1 39.7558 48.3068 52.989 -0.041934 0.200887 -0.0186593
399 1 3 47.7405 47.3298 56.7026 -0.222205 0.0164885 -0.0126592
400 1 1 47.5536 46.5849 57.3365 -0.0884406 0.029103 0.0315197
401 1 3 47.3321 45.7401 57.9383 0.0048029 0.0527027 -0.0497579
402 1 1 38.3473 41.5798 58.6414 -0.0250236 0.0981999 0.00343702
403 1 3 47.0462 44.9676 58.3691 0.0895638 0.054565 0.214824
404 1 1 39.1947 41.2958 58.758 0.101935 0.0487884 -0.105361
405 1 3 40.1025 41.0878 59.0013 -0.10156 -0.0399692 -0.00562001
406 1 1 41.1872 40.9836 59.0875 0.118298 0.00430366 -0.12114
407 1 3 46.635 44.0439 58.6771 -0.0287459 0.21784 0.153851
408 1 1 42.1594 40.9402 59.1294 0.118534 0.0309846 -0.156904
409 1 3 43.174 41.1447 59.1792 0.171339 -0.105494 -0.0312507
410 1 1 44.0241 41.4107 59.2257 -0.156157 0.0992115 -0.169465
411 1 3 46.2021 43.3654 58.9175 -0.0511076 0.0252595 -0.0369084
412 1 1 45.5382 42.6166 59.0847 -0.111931 0.0568736 0.0433085
413 1 3 44.8753 41.953 59.1593 -0.0677285 -0.0352147 -0.115615
414 1 1 44.7957 50.2026 53.8475 0.00317838 -0.0310752 0.068086
415 1 3 43.9605 50.2235 53.6854 -0.193129 -0.056353 -0.0397624
416 1 1 47.2013 48.7773 55.9103 0.0230098 -0.14382 -0.0593903
417 1 3 47.1545 48.126 56.7128 -0.063559 -0.0577897 0.180288
418 1 1 45.3461 50.0986 54.5386 -0.0151415 -0.00100017 -0.190998
419 1 3 45.5476 49.9558 55.3988 0.0526258 0.0626638 0.0792847
420 1 1 46.2114 49.4889 55.9796 -0.0945641 0.0234145 -0.149646
421 1 3 43.0846 49.9803 53.5303 -0.129874 -0.114959 -0.1192
422 1 1 42.0363 49.8262 53.5904 0.132378 -0.0501051 0.0750676
423 1 3 41.0897 49.4467 53.495 0.122303 -0.21094 0.19995
424 1 1 39.0269 47.4837 53.3324 -0.0543383 -0.0794943 -0.004069
425 1 3 38.4056 46.8043 53.8641 0.10977 0.0123344 -0.159981
426 1 1 38.0006 46.0401 54.2893 0.0182315 -0.199958 -0.148559
427 1 3 37.6408 45.2571 54.7933 0.138798 -0.0731584 0.00680834
428 1 1 37.4166 44.4817 55.3231 0.104766 -0.00375111 -0.0284457
429 1 3 37.5251 42.0758 58.4999 0.00581277 0.0578085 0.0651794
430 1 1 37.2773 43.7812 55.9502 -0.0726616 0.0103229 -0.165774
431 1 3 37.284 43.1299 56.696 -0.0783548 0.172917 0.0759015
432 1 1 37.3244 42.5847 57.602 0.124892 0.20405 -0.0433989
433 1 3 40.0857 48.9922 53.5845 0.0325215 0.00764839 0.211644
434 1 1 39.1708 48.2892 53.7884 -0.211458 -0.0766103 -0.0887357
435 1 3 47.1249 47.4517 57.4067 -0.0272426 0.0707082 0.044479
436 1 1 47.0386 46.5767 58.0888 -0.00337753 0.0324834 0.123764
437 1 3 46.7497 45.7628 58.6955 -0.0996604 0.00368362 0.0542668
438 1 1 37.8004 41.7544 59.3492 -0.18609 0.102948 -0.0674371
439 1 3 38.7241 41.441 59.5996 -0.0107084 0.0171182 0.113515
440 1 1 46.4986 44.9975 59.1249 -0.205608 0.0509707 0.151936
441 1 3 39.6438 41.1783 59.7783 0.0752321 -0.156599 0.0601093
442 1 1 40.6241 41.0646 59.8729 0.0150637 -0.0426415 -0.0718958
443 1 3 41.641 41.1049 60.0001 0.0504411 -0.0843068 -0.0607168
444 1 1 46.1156 44.1542 59.4764 -0.10885 0.0360806 0.131206
445 1 3 42.5459 41.2134 59.9693 -0.0059825 0.148596 -0.0703378
446 1 1 43.5031 41.5652 59.9801 -0.0549344 -0.0130535 -0.0319221
447 1 3 44.3669 42.0824 59.9411 -0.0716593 0.0474253 0.16578
448 1 1 45.6274 43.4297 59.6994 -0.063298 -0.0214046 -0.01499
449 1 3 45.0217 42.7367 59.9872 -0.0727936 -0.0361137 -0.090782
450 1 1 44.3792 50.2643 54.5164 -0.106184 0.0006522 -0.0359249
451 1 3 43.3805 50.2409 54.4758 -0.0170074 0.0420943 -0.080838
452 1 1 46.4834 48.8347 56.8072 -0.165496 -0.127893 0.110103
453 1 3 46.5596 48.1672 57.5218 -0.0996139 -0.0622145 -0.100451
454 1 1 44.7473 50.1788 55.3103 -0.118055 0.0388372 -0.0951623
455 1 3 45.2344 49.9509 56.0848 0.0828576 0.120024 -0.100433
456 1 1 45.6898 49.5254 56.8643 0.0741442 -0.120907 0.0343987
457 1 3 42.4962 50.1124 54.3282 0.00958594 -0.161055 0.130794
458 1 1 41.4089 49.8613 54.3228 -0.0466057 0.0342145 0.0638014
459 1 3 40.4535 49.5468 54.3116 0.106567 -0.0600817 0.00837829
460 1 1 38.515 47.6385 54.2273 0.0908006 0.0622257 0.169243
461 1 3 37.9475 46.9662 54.7154 -0.123479 -0.0530127 0.0355792
462 1 1 37.449 46.1257 55.1175 -0.100814 0.129097 0.172303
463 1 3 37.0878 45.4077 55.6219 -0.0794018 -0.0403913 0.0576516
464 1 1 36.8314 44.6344 56.1662 0.0861738 0.0382925 0.080526
465 1 3 36.9896 42.211 59.3131 0.0313404 0.0304861 -0.0405063
466 1 1 36.6927 42.6474 58.4325 -0.136415 0.0645314 -0.047202
467 1 3 36.7543 43.9041 56.858 0.244591 -0.113839 -0.0123051
468 1 1 36.7646 43.271 57.5743 0.143302 0.143918 0.0983808
469 1 3 39.5769 48.9927 54.3924 0.200016 0.0565052 0.0742524
470 1 1 38.7031 48.4264 54.6458 0.0512465 -0.0341055 0.0799037
471 1 3 46.5723 47.4537 58.2119 -0.106969 0.0259227 0.055371
472 1 1 46.4228 46.7118 58.8694 -0.101573 -0.103823 0.0403578
473 1 3 46.2466 45.8937 59.4257 0.165 -0.00968054 -0.0502441
474 1 1 37.2799 41.8826 60.188 0.153511 0.197463 -0.066333
475 1 3 38.1093 41.6053 60.3643 -0.0335029 -0.078569 0.08154
476 1 1 39.1083 41.3717 60.578 0.0635577 -0.0223557 0.163102
477 1 3 45.9174 45.1332 59.937 -0.15626 -0.187676 -0.0333469
478 1 1 40.0013 41.236 60.6749 0.0435197 -0.19136 0.12562
479 1 3 41.0253 41.1893 60.7718 -0.164529 0.138659 0.0736399
480 1 1 42.019 41.3636 60.8907 -0.0578504 0.0622363 -0.124217
481 1 3 45.5566 44.2714 60.2751 -0.0326843 0.0766003 0.034453
482 1 1 42.9834 41.683 60.7484 0.035544 -0.186295 -0.188552