ITEM: TIMESTEP
0
ITEM: NUMBER OF ATOMS
61833
ITEM: BOX BOUNDS pp pp pp
0 62
0 62
0 62
ITEM: ATOMS id mol type x y z vx vy vz 
1 1 3 34.2094 17.9097 6.45182 0.192523 0.143845 -0.0381275 
2 1 1 34.2776 17.1551 6.87103 0.102416 -0.232244 -0.0259684 
3 1 3 34.3215 17.2282 5.88662 0.0813223 -0.0070886 0.239292 
4 1 1 34.3279 16.4239 6.3166 -0.0301438 -0.0906224 -0.103854 
5 1 3 34.1417 18.0657 5.50875 -0.124627 0.0644833 0.196582 
6 1 1 34.263 16.5111 5.27599 -0.024062 -0.0649233 -0.0599108 
7 1 3 34.1798 15.6145 5.65801 -0.105785 -0.0724956 -0.122759 
8 1 1 34.0569 17.9848 7.31096 0.00390567 -0.0440639 -0.0310263 
9 1 3 34.0284 17.1632 7.84411 0.00926268 0.00722574 0.0551521 
10 1 1 34.1864 16.4001 7.31724 -0.0569836 -0.0253599 0.0165468 
11 1 3 34.1799 15.6719 6.73116 0.0218503 0.0281507 0.0684999 
12 1 1 33.9766 14.9241 6.32963 -0.0169695 0.034751 -0.0827663 
13 1 3 33.9042 18.7612 6.7335 -0.0426864 -0.0969503 -0.180907 
14 1 1 34.0105 18.5918 6.01421 0.142829 0.0509329 0.0503287 
15 1 3 33.8149 18.9033 5.36375 0.0337103 0.0580259 -0.0169856 
16 1 1 34.162 17.3679 4.9138 -0.0799084 -0.0877399 0.00953636 
17 1 3 33.8826 18.2639 4.62507 0.0479032 0.0252508 0.0344597 
18 1 1 33.8768 14.7578 5.58275 0.0416079 -0.0940244 0.165927 
19 1 3 33.8593 15.0782 4.84551 0.0727956 0.0729738 0.045249 
20 1 1 34.0162 15.8342 4.63407 -0.0400129 -0.0950104 -0.13474 
21 1 3 33.9974 16.6497 4.30549 -0.0818117 -0.10127 0.114489 
22 1 1 33.5585 19.3123 7.10099 -0.0386192 0.0933651 -0.0660908 
23 1 3 33.7298 18.5783 7.74866 -0.0995522 -0.0648611 0.0119257 
24 1 1 33.7202 17.8503 8.31134 0.133972 -0.0871839 0.0272434 
25 1 3 33.6056 17.163 8.72462 0.114782 -0.0933497 0.0700749 
26 1 1 33.8204 16.3266 8.31121 -0.0172391 -0.124107 -0.100271 
27 1 3 33.9006 15.5539 7.77806 0.0577099 -0.0813642 0.1465 
28 1 1 33.5879 14.156 6.00672 -0.175871 -0.0628227 -0.148697 
29 1 3 33.7978 14.8434 7.29698 -0.0086116 -0.0648894 0.0551484 
30 1 1 33.527 14.1494 6.84017 -0.095053 -0.0389291 -0.0854476 
31 1 3 33.577 19.4628 6.13301 0.116852 0.200253 0.135397 
32 1 1 33.4322 19.5121 5.16503 -0.0493997 -0.157708 0.0806841 
33 1 3 33.4997 19.0359 4.47895 -0.031517 0.0173946 0.012089 
34 1 1 33.7754 17.567 3.94493 -0.0132879 0.12162 -0.133843 
35 1 3 33.4367 18.4946 3.81058 -0.0613063 0.0469938 0.0336015 
36 1 1 33.5495 14.2801 5.14404 -0.0630129 -0.0731314 0.0346041 
37 1 3 33.3837 14.4759 4.31954 -0.0444575 0.142494 -0.0230861 
38 1 1 33.1438 13.6052 5.51988 -0.10971 -0.177034 -0.115961 
39 1 3 33.568 15.2345 3.96093 0.105253 0.078821 0.114296 
40 1 1 33.6175 15.9356 3.68289 -0.200143 0.0143932 -0.071707 
41 1 3 33.498 16.8405 3.34776 0.000982628 -0.100689 0.00897261 
42 1 1 33.1752 19.9213 6.90068 -0.00726808 -0.00983093 0.0602346 
43 1 3 32.9932 19.7849 7.80493 -0.0504297 -0.112393 -0.0154413 
44 1 1 33.2433 19.1543 8.19904 -0.0213589 0.09157 -0.0139555 
45 1 3 33.3971 18.4949 8.52338 0.0584715 0.0212188 -0.0999457 
46 1 1 33.2008 18.0079 9.07919 0.0487375 -0.107991 0.141741 
47 1 3 32.9848 17.3438 9.51798 -0.0552667 0.104994 0.0133971 
48 1 1 33.2977 16.4206 9.17201 0.0592608 0.105354 -0.115057 
49 1 3 33.4419 15.5086 8.69373 -0.0206128 0.105407 -0.0996736 
50 1 1 33.4131 14.7555 8.20343 -0.0975407 0.116292 -0.0292315 
51 1 3 33.12 13.5291 6.4023 -0.0134486 -0.00938023 0.0109514 
52 1 1 33.2453 14.0797 7.68288 0.0138059 -0.0334082 -0.0506912 
53 1 3 33.0868 13.6244 7.10186 -0.0601229 0.15345 -0.013239 
54 1 1 32.9807 20.2309 6.25037 0.0220111 -0.0218493 0.109178 
55 1 3 32.4118 20.6634 6.95423 0.170578 -0.0188899 -0.169755 
56 1 1 33.0863 20.0623 5.53148 -0.0184073 0.0550861 -0.0990733 
57 1 3 33.0164 19.8506 4.64581 0.0382495 -0.0646456 -0.0372091 
58 1 1 32.4191 20.7005 5.55732 0.0137143 -0.0731329 0.049195 
59 1 3 32.9542 19.3559 3.79959 -0.0243042 0.098959 -0.10287 
60 1 1 33.2236 17.8078 3.14125 -0.0636459 0.323739 -0.127252 
61 1 3 32.8219 18.7898 3.13976 0.0606046 0.0282773 -0.0691825 
62 1 1 33.1489 14.7092 3.65189 -0.0342138 -0.0976682 -0.0293996 
63 1 3 33.0336 13.7614 4.66126 -0.0279814 -0.0685608 -0.13065 
64 1 1 32.791 13.9968 3.8393 0.110918 0.126226 -0.194254 
65 1 3 32.6269 13.0264 6.01173 0.0412088 -0.148978 0.00370301 
66 1 1 32.5752 13.1317 5.07424 0.108 -0.128003 0.0136601 
67 1 3 33.1034 15.239 3.22955 -0.0176114 0.0824129 0.101891 
68 1 1 33.0595 16.1127 2.85916 0.32116 -0.226734 -0.0655438 
69 1 3 32.8937 17.0933 2.62315 0.0210315 0.263479 -0.0842478 
70 1 1 32.6268 20.2603 7.64 0.0318684 0.103129 0.117686 
71 1 3 32.5777 19.8569 8.4184 -0.112084 0.0606034 0.0291206 
72 1 1 32.7202 18.9734 9.11582 0.0314351 -0.0236357 0.0141147 
73 1 3 32.5255 18.2091 9.72454 -0.0317783 -0.0326151 -0.0104924 
74 1 1 32.3323 17.4358 10.0923 0.0934964 0.0248504 0.00419525 
75 1 3 32.6441 16.5439 9.88172 0.106497 0.136069 -0.0432936 
76 1 1 32.8503 15.6028 9.49192 0.119593 0.124656 -0.0347949 
77 1 3 32.9042 14.7399 8.9791 -0.0480584 -0.00677427 0.017535 
78 1 1 32.7899 14.0527 8.50001 -0.218126 0.0327766 0.0592335 
79 1 3 32.5944 13.0779 6.91593 0.0425199 0.164239 -0.0250687 
80 1 1 32.5375 13.3621 7.86871 0.0565612 -0.0747975 -0.200444 
81 1 3 32.0045 12.5796 6.50702 0.112898 0.021216 0.112893 
82 1 1 31.771 20.9176 7.60792 0.138252 0.081056 -0.128112 
83 1 3 32.1055 20.968 6.2209 0.0140442 -0.0396106 0.0890842 
84 1 1 31.7606 21.1138 6.88148 -0.029945 -0.243442 -0.135676 
85 1 3 32.4509 20.5354 4.95375 -0.00304523 -0.0107338 -0.127666 
86 1 1 32.3866 20.1668 4.03296 -0.00211679 0.0838049 -0.0993609 
87 1 3 31.8222 21.0576 5.27919 -0.0817608 -0.0336694 0.00538031 
88 1 1 32.2391 19.6292 3.19577 0.00154825 -0.12969 -0.075267 
89 1 3 32.5226 18.0823 2.49099 -0.00390777 -0.18073 -0.104533 
90 1 1 32.0149 19.0676 2.56468 0.0823616 -0.0938443 0.117508 
91 1 3 32.5002 14.5403 2.98169 -0.146324 -0.0057515 -0.0260691 
92 1 1 32.392 13.3566 4.16712 -0.175469 0.0965101 0.116459 
93 1 3 32.0926 13.7049 3.32969 -0.00664753 -0.117162 0.0577919 
94 1 1 31.9915 12.5997 5.52667 -0.191097 0.0510259 0.016349 
95 1 3 31.877 12.7805 4.56996 -0.063774 -0.198131 0.0713359 
96 1 1 32.4801 15.4114 2.49489 0.202948 -0.0144868 0.0582941 
97 1 3 32.4148 16.3725 2.21121 0.0186079 0.00870948 -0.303168 
98 1 1 32.0949 17.4377 2.00652 -0.0254129 0.170673 -0.00573998 
99 1 3 31.9522 20.4653 8.32138 -0.12681 -0.152523 -0.077864 
100 1 1 31.9179 19.8454 9.15382 -0.012696 0.017765 0.016703 
101 1 3 31.8581 19.0885 9.80185 -0.0364224 0.120298 0.176253 
102 1 1 31.6946 18.2659 10.2968 -0.138476 0.112679 -0.0272851 
103 1 3 32.0441 16.7257 10.3417 0.0299812 0.0595755 -0.172739 
104 1 1 31.6513 17.3135 10.54 0.129664 0.0431066 -0.106037 
105 1 3 32.0317 15.7565 10.2193 -0.121812 -0.0972133 0.07942 
106 1 1 32.2739 14.7978 9.65657 -0.0460007 0.00253539 -0.0206281 
107 1 3 32.2308 14.0507 9.15356 0.0801822 0.128593 0.114469 
108 1 1 32.1511 13.5445 8.6913 -0.142627 -0.0239244 -0.0127443 
109 1 3 31.3292 12.1397 6.03164 0.024195 0.122201 0.104917 
110 1 1 31.9142 12.7217 7.47299 -0.0677807 -0.00659553 -0.0828941 
111 1 3 31.7251 13.0212 8.38573 0.0649364 -0.12354 0.0307266 
112 1 1 31.2634 12.1854 6.99467 0.0230277 0.0349167 0.081128 
113 1 3 31.1047 21.3679 7.1564 -0.110541 -0.159951 -0.104398 
114 1 1 31.1722 21.0254 8.08947 0.0861469 -0.00975899 -0.0722185 
115 1 3 31.161 21.4589 6.0982 -0.0379366 0.0694062 0.05038 
116 1 1 30.3716 21.6686 6.63287 0.0199165 -0.147693 0.038306 
117 1 3 31.6979 20.8653 4.42142 -0.108718 -0.0681253 -0.164851 
118 1 1 31.5693 20.4182 3.49556 -0.0815283 -0.0300694 -0.0355096 
119 1 3 30.9575 21.3768 4.92978 -0.215672 0.0251408 0.0172683 
120 1 1 31.3865 19.8052 2.69843 -0.250148 -0.0725479 -0.0923513 
121 1 3 31.6767 18.3702 1.9975 -0.10626 0.129774 0.05208 
122 1 1 31.1609 19.2708 2.1835 0.0585431 0.0224167 0.0298859 
123 1 3 31.7793 14.763 2.27023 -0.140942 0.0143241 0.0778813 
124 1 1 31.7686 14.1101 2.68616 -0.214895 -0.00471319 -0.0421822 
125 1 3 31.6634 13.1159 3.67303 0.06761 -0.0860973 -0.16779 
126 1 1 31.3637 13.5945 2.87201 -0.0925846 0.0177014 -0.100761 
127 1 3 31.2756 12.2327 5.10091 0.091339 0.0537324 0.0539393 
128 1 1 31.0849 12.435 4.22116 -0.00436682 0.00213966 0.149207 
129 1 3 30.6706 11.7633 5.55737 -0.0210057 -0.0212235 -0.141024 
130 1 1 31.2496 17.7184 1.60333 -0.070841 -0.0221456 0.267 
131 1 3 31.7994 15.6165 1.9421 -0.13294 0.0595305 -0.0723196 
132 1 1 31.4302 16.7553 1.58994 0.0860189 0.0844896 -0.0877014 
133 1 3 31.1777 20.5288 8.9181 0.0701061 0.044661 0.0797642 
134 1 1 31.204 19.8227 9.65859 -0.0380213 0.117819 -0.190666 
135 1 3 31.0688 17.7788 10.7244 0.0901956 -0.035999 0.0741194 
136 1 1 31.1091 19.1113 10.2029 0.0473667 -0.0652242 0.103883 
137 1 3 30.7952 18.4765 10.6162 -0.0213337 -0.0434174 -0.0319219 
138 1 1 31.4001 16.4466 10.6788 -0.0922986 0.0689426 -0.0986773 
139 1 3 30.8937 17.145 10.8759 0.0518707 -0.00278541 -0.0573301 
140 1 1 31.0942 15.5769 10.6564 -0.0769771 0.0539702 0.00643603 
141 1 3 31.5067 14.7879 10.1689 0.0980544 0.0498682 0.153736 
142 1 1 31.7509 14.224 9.68064 -0.0350005 0.00920969 -0.0416181 
143 1 3 31.4464 13.4664 9.21288 0.0314094 -0.065233 0.00415772 
144 1 1 30.6437 11.7249 6.52158 -0.0265519 0.00396153 -0.105998 
145 1 3 31.2242 12.47 7.93824 -0.0941529 -0.0254404 -0.00968629 
146 1 1 31.1221 12.7775 8.60032 0.131281 0.0414721 -0.125362 
147 1 3 30.549 11.8612 7.46665 -0.187289 -0.0318875 -0.0528945 
148 1 1 30.4034 21.4669 7.58691 0.0456113 -0.00729752 -0.0342718 
149 1 3 30.373 21.057 8.5493 0.0353578 0.117197 -0.0960689 
150 1 1 30.2279 21.6841 5.52953 0.0527265 0.0340434 -0.0506565 
151 1 3 29.6686 21.6757 7.19172 0.0871305 -0.0267457 -0.132028 
152 1 1 29.467 21.7987 6.15837 -0.103566 0.109946 0.148471 
153 1 3 30.8543 21.0394 3.95506 -0.0434489 -0.00647509 -0.0916304 
154 1 1 30.7062 20.5146 3.07679 0.00781432 -0.0393247 -0.0335094 
155 1 3 30.1684 21.467 4.53923 -0.0335687 -0.0568085 0.0660428 
156 1 1 30.481 19.8372 2.32805 0.0311318 -0.13912 -0.029105 
157 1 3 30.8128 18.5636 1.6918 0.0455391 -0.0115004 0.136651 
158 1 1 30.4445 19.2418 1.91182 -0.074798 0.0309545 -0.0195317 
159 1 3 31.2291 15.0149 1.86072 0.139569 -0.12639 -0.022171 
160 1 1 30.9849 14.1939 2.19507 0.0971997 0.19824 0.201098 
161 1 3 30.6092 13.3896 2.62381 -0.230903 0.154014 0.193806 
162 1 1 30.7743 12.8291 3.30397 0.0461431 0.0993292 -0.0235446 
163 1 3 30.5264 11.8844 4.6939 -0.0244571 -0.0861848 -0.0314392 
164 1 1 30.4149 12.1361 3.98793 0.103426 -0.00979982 -0.160901 
165 1 3 30.004 11.3076 5.96679 0.191144 0.132057 0.124976 
166 1 1 30.1139 11.48 5.18842 0.0697748 -0.0983187 -0.188023 
167 1 3 30.6964 17.2831 1.3441 0.0580684 -0.0910498 -0.0511296 
168 1 1 30.4186 17.9993 1.40022 0.0789179 -0.0526184 -0.0206038 
169 1 3 30.9316 15.6888 1.52435 -0.0775962 -0.0117589 0.12323 
170 1 1 30.4696 16.4776 1.27274 0.0986889 -0.0739919 0.295754 
171 1 3 30.3329 20.4475 9.40919 0.00843045 0.00353268 0.112069 
172 1 1 30.2811 19.7692 10.0467 -0.188252 0.0325595 -0.0327207 
173 1 3 30.4032 17.7751 10.9226 0.2726 0.00709403 -0.0333976 
174 1 1 30.0928 19.0966 10.5124 -0.0621199 -0.0505835 -0.0127959 
175 1 3 30.0533 18.3857 10.8232 -0.0711445 0.127119 0.00158867 
176 1 1 30.036 17.0956 11.0774 -0.090677 0.132477 0.011958 
177 1 3 30.5608 16.3231 10.9606 -0.0381789 -0.187213 -0.0128398 
178 1 1 30.18 15.4767 10.8833 -0.0160057 0.0724152 -0.0105653 
179 1 3 30.6586 14.718 10.4866 -0.0568888 -0.181086 0.0120584 
180 1 1 31.0859 14.0395 9.92201 -0.00673542 -0.0594389 0.0976149 
181 1 3 30.5853 13.4302 9.69311 0.137784 -0.00376606 -0.0340613 
182 1 1 30.5998 12.9338 9.21427 -0.253014 -0.0445287 -0.0297803 
183 1 3 29.8812 11.3117 6.97299 -0.0619457 0.0193744 0.119627 
184 1 1 29.3976 10.9248 6.26724 0.118556 0.0677069 0.0697246 
185 1 3 30.4085 12.229 8.44612 0.0633889 -0.0678146 -0.0450174 
186 1 1 29.9092 11.5877 7.81164 -0.0186475 0.153403 -0.174372 
187 1 3 29.5975 21.3872 8.10748 0.0461269 -0.0694605 0.0186086 
188 1 1 29.5278 20.8884 9.00693 -0.0218065 -0.03346 -0.216567 
189 1 3 29.4661 21.6923 5.10885 -0.0273188 -0.000932657 -0.144596 
190 1 1 28.7424 21.723 5.48742 0.216303 -0.107518 -0.113091 
191 1 3 29.0107 21.5582 7.63126 0.0499039 -0.00104577 -0.0914289 
192 1 1 28.8848 21.7108 6.94924 0.014204 0.0269829 0.0772007 
193 1 3 28.5645 21.7387 6.21721 -0.0349473 -0.0200669 -0.102719 
194 1 1 29.9515 21.0509 3.57267 -0.0970403 -0.172933 0.0383705 
195 1 3 29.7627 20.4701 2.76418 -0.00757235 0.0715985 -0.0857247 
196 1 1 29.2609 21.3727 4.11141 0.0151169 -0.0533903 -0.147388 
197 1 3 29.5806 19.6353 2.02251 -0.0362317 0.105928 -0.17393 
198 1 1 29.8964 18.7699 1.57165 -0.103137 0.147514 0.0892921 
199 1 3 30.5438 14.8948 1.67068 -0.224331 0.0109358 0.103216 
200 1 1 30.1163 14.3718 1.78532 0.135101 -0.0614701 -0.0325235 
201 1 3 30.14 13.6603 2.19643 -0.0307189 -0.0432749 0.00775022 
202 1 1 29.9827 12.9299 2.68009 -0.0140575 -0.0987356 0.00884149 
203 1 3 29.8138 12.1838 3.35393 0.222175 -0.00727133 -0.0762414 
204 1 1 29.6752 11.5254 4.26612 -0.028229 0.064142 -0.00865482 
205 1 3 29.3051 10.9547 5.26208 0.169759 0.0870243 0.0876721 
206 1 1 29.9503 17.2553 1.19184 0.00772003 0.0710836 -0.119264 
207 1 3 29.4444 18.0361 1.28989 0.114103 -0.0514939 -0.0148831 
208 1 1 30.0566 15.6676 1.31715 -0.0592852 0.0109665 -0.0871386 
209 1 3 29.5425 16.4843 1.14831 -0.092102 0.0122018 0.145032 
210 1 1 29.4495 20.2274 9.77259 0.0749673 0.01187 0.00320566 
211 1 3 29.3029 19.5797 10.2891 0.00350503 0.137369 -0.070391 
212 1 1 29.5597 17.8654 11.0151 -0.0238541 0.0157475 -0.190559 
213 1 3 29.1342 18.7286 10.7423 0.0685176 -0.00552421 0.125291 
214 1 1 29.1479 17.1148 11.1205 -0.155708 0.00249483 0.109116 
215 1 3 29.6703 16.2865 11.0974 -0.022689 -0.0670337 -0.0974889 
216 1 1 28.765 10.5252 6.0571 0.17026 0.0496853 -0.0793884 
217 1 3 28.9937 10.75 6.95958 0.0366162 -0.0590806 0.16383 
218 1 1 29.2205 15.4978 11.0259 -0.094738 -0.0588072 -0.064888 
219 1 3 29.6448 14.7248 10.7531 0.150429 -0.0870522 -0.150739 
220 1 1 30.089 13.9224 10.2548 -0.0732056 -0.150104 0.0255244 
221 1 3 29.8991 13.0651 9.74849 -0.314893 0.234281 0.138285 
222 1 1 29.7535 12.401 9.21336 0.0517887 -0.0632932 0.0284419 
223 1 3 29.2862 11.1634 7.73283 -0.0316395 -0.0179312 0.166814 
224 1 1 29.4627 11.6779 8.51541 -0.165219 -0.127166 0.069456 
225 1 3 28.6607 20.5306 9.39026 -0.139866 0.214258 0.0607014 
226 1 1 28.6217 21.1705 8.45106 0.176113 -0.096403 0.112195 
227 1 3 28.5456 21.495 4.6069 0.155383 0.0147243 0.0691076 
228 1 1 28.062 21.538 5.17369 -0.0936404 0.18091 0.106188 
229 1 3 27.9757 21.6026 5.86973 0.0180283 -0.0120829 -0.000843154 
230 1 1 28.2193 21.4709 7.51656 0.00119895 0.0968358 -0.0155357 
231 1 3 28.0676 21.6034 6.67799 0.0222064 0.159315 0.00968935 
232 1 1 29.0247 20.8991 3.28837 0.0773518 -0.00923228 0.196996 
233 1 3 28.8009 20.3011 2.60646 -0.0683818 -0.0789464 -0.105999 
234 1 1 28.3539 21.0933 3.76976 -0.0131624 0.172501 -0.0285874 
235 1 3 28.4616 19.6159 2.09764 -0.0561113 -0.169182 0.0150597 
236 1 1 28.9969 18.8745 1.59772 0.0429982 0.0947876 -0.0759069 
237 1 3 29.698 14.8919 1.47112 -0.0824859 0.0598393 0.110777 
238 1 1 29.2753 14.0253 1.70095 -0.00229966 0.0806632 -0.0545367 
239 1 3 29.2933 13.1283 2.19674 0.0347974 0.158316 0.110553 
240 1 1 29.1792 12.3092 2.78525 0.0342276 -0.124934 -0.00823898 
241 1 3 29.0085 11.5823 3.47606 -0.0393254 0.0822968 -0.0600954 
242 1 1 28.7674 10.9424 4.28977 -0.0620725 0.0399793 0.050774 
243 1 3 28.4259 10.4268 5.14833 -0.0325333 -0.0340245 0.0211285 
244 1 1 29.0201 17.3139 1.17118 0.0459673 0.138645 0.0130977 
245 1 3 28.5096 18.1229 1.38443 -0.0366736 0.0257846 0.0899166 
246 1 1 29.0937 15.6256 1.20834 -0.11851 -0.104433 -0.0451335 
247 1 3 28.6072 16.4576 1.13463 0.309043 0.0144762 -0.0203673 
248 1 1 28.5628 19.8756 9.99613 -0.130837 0.042109 -0.130336 
249 1 3 28.5192 19.3058 10.3795 -0.0603282 -0.0544442 0.164439 
250 1 1 28.6337 17.9318 10.9523 0.0692459 0.13233 -0.000254783 
251 1 3 28.1468 18.7052 10.598 -0.141936 -0.0661011 0.158312 
252 1 1 28.1794 17.081 11.0595 0.160995 -0.028474 -0.0413562 
253 1 3 28.7201 16.2832 11.1332 0.0966367 0.11335 0.149233 
254 1 1 27.9511 10.0149 6.00365 0.00356969 0.042776 0.0824271 
255 1 3 28.2447 10.2615 6.86971 -0.065566 -0.10155 0.0633827 
256 1 1 28.4694 10.6524 7.74126 -0.0299112 0.209416 0.148669 
257 1 3 28.3325 15.4769 11.1001 0.0550927 0.135855 0.0436099 
258 1 1 28.7454 14.717 10.9219 0.239517 0.0238045 0.0167515 
259 1 3 29.1542 14.1411 10.6494 -0.00957371 -0.0190204 0.0535506 
260 1 1 29.0835 13.3471 10.289 -0.0996906 0.164731 0.0461 
261 1 3 28.9884 12.6135 9.84518 0.0231512 -0.00309777 -0.0106514 
262 1 1 28.9068 11.8676 9.21276 0.00779302 -0.00385685 0.173309 
263 1 3 28.687 11.2 8.53152 -0.0626208 0.135582 0.137835 
264 1 1 28.0159 20.1542 9.59312 0.0137068 0.0926861 -0.0583688 
265 1 3 27.8352 20.6184 8.9843 0.038528 -0.0160046 0.0327431 
266 1 1 27.6192 21.0582 8.10337 0.123239 0.0470481 0.0382001 
267 1 3 27.5943 21.1435 4.37864 0.0127845 -0.0330186 -0.138736 
268 1 1 27.3447 21.317 5.35348 0.150402 0.0946178 -0.086387 
269 1 3 27.3383 21.379 6.24892 -0.137885 -0.0412695 0.0947322 
270 1 1 27.4233 21.295 7.18255 -0.218475 -0.147564 -0.0376235 
271 1 3 28.1122 20.5885 3.11352 0.0442714 -0.0781042 0.0173429 
272 1 1 28.0635 20.0799 2.58423 -0.0785398 0.201692 0.00586044 
273 1 3 27.6185 20.7333 3.57509 -0.0464156 -0.00244716 0.0111146 
274 1 1 27.6063 19.5614 2.34509 -0.0273462 0.0692086 -0.103096 
275 1 3 28.0333 18.8814 1.78148 0.137054 0.137469 -0.166556 
276 1 1 28.6889 14.8124 1.31483 0.125817 0.0436358 -0.0287313 
277 1 3 28.2915 14.1531 1.42533 -0.033145 -0.0241663 -0.175199 
278 1 1 28.3872 13.383 1.73912 -0.0549494 -0.0119634 0.0912421 
279 1 3 28.4471 12.5962 2.19671 0.0552424 0.029941 -0.0316682 
280 1 1 28.362 11.7935 2.7857 0.0156606 -0.199969 0.0880516 
281 1 3 28.2165 11.0844 3.47491 -0.132699 -0.0676751 -0.171705 
282 1 1 27.9666 10.4426 4.28068 -0.154638 -0.159955 0.224881 
283 1 3 27.5758 9.89569 5.13385 -0.0605402 0.216043 0.107639 
284 1 1 28.1151 17.2479 1.24131 -0.0225359 0.0134595 -0.0712728 
285 1 3 27.6011 17.9642 1.51407 -0.0262456 -0.128293 0.0616984 
286 1 1 28.19 15.6173 1.14816 -0.0205139 0.0796167 -0.0571159 
287 1 3 27.7124 16.456 1.16648 -0.140846 0.131894 0.0821794 
288 1 1 27.7066 19.4052 10.0723 -0.0562601 0.0314991 -0.107135 
289 1 3 27.7796 17.9426 10.7976 0.0157616 0.150938 -0.0684048 
290 1 1 27.491 18.5441 10.4833 0.0411615 -0.179775 -0.0561232 
291 1 3 27.1122 9.48705 5.9935 0.0341828 0.0929997 -0.136322 
292 1 1 27.2707 17.0663 10.9531 0.0608487 -0.00926761 0.0685466 
293 1 3 27.7808 16.2697 11.1189 -0.0270936 -0.0312722 -0.100649 
294 1 1 27.4206 9.74006 6.84848 -0.048735 -0.0502225 -0.0535194 
295 1 3 27.6738 10.1402 7.71503 0.124388 0.0381388 -0.00406629 
296 1 1 27.8888 10.669 8.48894 -0.0175997 -0.197609 0.209346 
297 1 3 27.4306 15.3932 11.1307 -0.0776801 -0.119193 -0.0845976 
298 1 1 28.0036 14.8339 11.0435 -0.142311 -0.0805805 -0.0790005 
299 1 3 28.2012 13.8691 10.7715 0.225059 -0.105247 0.0791035 
300 1 1 28.1707 12.9165 10.3689 0.112676 0.115861 0.256163 
301 1 3 28.17 12.1004 9.84683 -0.00223049 0.175126 -0.0248354 
302 1 1 28.0602 11.3349 9.21372 -0.0419723 0.112183 -0.1958 
303 1 3 26.8154 20.8188 7.69746 0.0337327 0.0410014 0.00143681 
304 1 1 27.3282 20.0051 9.39518 -0.0586923 0.0610849 -0.0248992 
305 1 3 27.0275 20.4827 8.59332 -0.0144268 0.0140582 0.0533 
306 1 1 26.9663 20.5783 3.88183 0.216656 -0.0440749 -0.138451 
307 1 3 26.7783 20.8773 4.79561 -0.127834 -0.0315181 0.129725 
308 1 1 26.689 21.0198 5.76142 0.1539 -0.015239 -0.115014 
309 1 3 26.7017 20.9998 6.74123 -0.169956 0.0730769 -0.155923 
310 1 1 27.2458 20.1341 3.05496 -0.0522677 0.144209 -0.0817298 
311 1 3 26.8399 19.3751 2.57544 0.123391 -0.0201518 -0.0603203 
312 1 1 27.0691 18.7136 2.01269 -0.0097061 0.073031 -0.00535096 
313 1 3 27.7002 14.7727 1.20463 0.057856 0.0942631 0.0405787 
314 1 1 27.6126 13.8187 1.39808 0.112213 -0.0978266 0.0258461 
315 1 3 27.6258 12.8829 1.74813 -0.117664 0.0595044 0.0731952 
316 1 1 27.6013 12.0617 2.19692 -0.0203343 -0.091947 0.100725 
317 1 3 27.5163 11.2602 2.78456 -0.0316197 0.144975 0.02509 
318 1 1 27.371 10.5519 3.47466 0.0534811 0.0100964 -0.129014 
319 1 3 27.0988 9.88647 4.3044 -0.143112 -0.0366656 -0.132044 
320 1 1 26.7236 9.35944 5.13645 0.0178071 0.259722 -0.123989 
321 1 3 27.2049 17.157 1.34613 0.0228865 0.0163262 0.0205844 
322 1 1 26.8631 17.7762 1.61863 0.126266 -0.168768 -0.21852 
323 1 3 27.2489 15.6778 1.13545 -0.0114112 -0.164948 0.11221 
324 1 1 26.9907 16.4371 1.22332 0.086889 0.155684 0.11165 
325 1 3 26.8177 19.4117 9.64501 0.0284204 -0.0781346 0.0198009 
326 1 1 26.86 18.8722 10.072 0.0920981 0.0900393 0.0859278 
327 1 3 26.8145 17.9364 10.5675 0.087152 0.219844 -0.0560432 
328 1 1 26.5057 16.992 10.844 0.108516 0.0753675 -0.0292597 
329 1 3 26.2768 8.96226 5.97872 0.162561 0.054699 0.0923813 
330 1 1 26.5777 9.20801 6.84496 -0.0815487 -0.118493 0.122158 
331 1 3 26.8081 16.1905 11.0628 0.0953947 0.00378317 -0.0354535 
332 1 1 26.827 9.6078 7.71385 0.0180648 -0.261589 -0.0600695 
333 1 3 27.0429 10.1356 8.48826 0.00868103 0.116874 0.0437956 
334 1 1 27.2146 10.8016 9.21433 -0.00715577 0.0774711 0.160559 
335 1 3 26.6635 15.266 11.1327 0.222233 0.0475785 -0.0327066 
336 1 1 27.1468 14.3826 11.0583 -0.118668 -0.132444 0.053835 
337 1 3 27.2748 13.314 10.7822 -0.0323591 -0.070816 0.130625 
338 1 1 27.3799 12.4166 10.3684 -0.163378 -0.0182112 0.105455 
339 1 3 27.3233 11.5669 9.84663 -0.0109482 -0.0539206 0.081455 
340 1 1 26.4847 20.1398 3.66801 -0.0597149 0.0777004 0.0466073 
341 1 3 26.0617 20.512 7.16878 -0.133678 0.0692242 0.0670436 
342 1 1 26.163 20.2532 8.04907 -0.0142973 0.137799 -0.162958 
343 1 3 26.3844 19.8044 8.96478 -0.0497482 0.0753885 -0.0831309 
344 1 1 26.2536 20.3647 4.33083 0.113258 -0.0520992 0.0312406 
345 1 3 26.014 20.5215 5.27399 -0.0053994 0.0665079 -0.166751 
346 1 1 26.0005 20.5999 6.23827 -0.0252911 -0.077607 -0.0347933 
347 1 3 25.3771 20.1689 6.71188 -0.173383 -0.158328 0.141485 
348 1 1 26.3986 19.6015 3.05473 0.00483842 -0.0592847 -0.0555015 
349 1 3 26.2143 18.9136 2.51953 -0.0587891 0.102484 -0.156258 
350 1 1 26.1152 18.055 1.97957 0.155404 0.142239 0.0054701 
351 1 3 26.8036 15.0418 1.13519 0.0964566 -0.0609424 0.100942 
352 1 1 26.8043 14.224 1.20265 0.0848177 0.0616156 -0.0123264 
353 1 3 26.8019 13.2986 1.40021 0.0380268 -0.0540136 0.0617248 
354 1 1 26.7921 12.4093 1.72403 -0.00261373 -0.0392556 -0.10935 
355 1 3 26.7561 11.5293 2.19469 0.0854458 0.126917 -0.0345276 
356 1 1 26.6711 10.727 2.7846 0.0765676 0.00496833 -0.0231626 
357 1 3 26.5241 10.0187 3.47479 -0.0485932 0.128008 0.0418596 
358 1 1 26.2523 9.35565 4.30118 0.0657027 -0.126057 0.059226 
359 1 3 25.8583 8.81688 5.1317 0.152649 -0.0611248 -0.149444 
360 1 1 26.2069 17.0338 1.49691 0.0132219 -0.00977953 -0.230886 
361 1 3 26.2147 15.8612 1.21007 -0.0394933 0.014321 -0.0754716 
362 1 1 26.1324 19.0461 9.5879 0.00110954 0.0701008 -0.206893 
363 1 3 26.0126 18.3393 10.0721 -0.0615525 0.0551251 0.0319968 
364 1 1 25.8522 17.4118 10.5307 0.0466422 -0.0491144 0.00297739 
365 1 3 25.9097 16.5248 10.871 0.0963025 -0.00796562 0.150524 
366 1 1 25.4149 8.41904 6.00558 0.064101 0.0498276 -0.0441133 
367 1 3 25.7299 8.67323 6.83252 0.148894 -0.018271 -0.00639224 
368 1 1 25.9783 9.07148 7.7085 0.01542 0.0545693 -0.0282169 
369 1 3 25.9269 15.6212 11.0662 0.0518602 -0.000856407 -0.0382011 
370 1 1 26.1966 9.60302 8.48785 0.217365 -0.173968 -0.157531 
371 1 3 26.3681 10.2684 9.21294 0.0819054 -0.0226012 -0.100495 
372 1 1 26.4766 11.0338 9.84644 -0.0767375 0.154983 0.0679213 
373 1 3 26.1428 14.6904 11.1346 -0.100447 -0.0138733 -0.103301 
374 1 1 26.3409 13.74 11.037 0.0518259 -0.07985 0.0403869 
375 1 3 26.4808 12.8032 10.7779 -0.0369707 -0.0646074 -0.0125954 
376 1 1 26.5325 11.8844 10.3678 0.00419447 0.224459 -0.0233086 
377 1 3 25.681 19.7337 3.8233 -0.0228727 0.131397 0.0374105 
378 1 1 25.4252 19.9873 7.57631 0.0816465 -0.0495725 0.0854888 
379 1 3 25.6043 19.7783 8.28163 -0.0134698 -0.0250545 0.00382637 
380 1 1 25.3865 19.2155 8.91584 0.0865208 0.0865088 0.0448987 
381 1 3 25.4119 20.0178 4.80257 -0.157151 0.186333 0.159006 
382 1 1 25.3304 20.161 5.747 0.0160656 0.0582219 -0.0229582 
383 1 3 24.6775 19.7642 6.30206 0.0168768 0.0135402 0.201838 
384 1 1 24.882 19.7889 7.08147 0.00805842 0.056205 -0.000584811 
385 1 3 25.553 19.0682 3.05459 -0.0584726 0.013114 0.0390791 
386 1 1 25.4145 18.2852 2.42396 0.0411683 0.00803381 -0.0367667 
387 1 3 25.3341 17.416 1.89932 -0.0961027 -0.140483 -0.0387615 
388 1 1 26.059 14.8231 1.13451 -0.086692 -0.0975529 -0.169047 
389 1 3 25.9996 13.8255 1.18905 -0.0770871 0.0625433 0.0956604 
390 1 1 25.9874 12.8171 1.39138 -0.0087435 -0.0127192 -0.0746257 
391 1 3 25.946 11.8761 1.72292 -0.0596552 -0.00868894 -0.0795778 
392 1 1 25.9096 10.9958 2.19532 -0.00294767 0.122729 0.220622 
393 1 3 25.8241 10.1942 2.78447 0.154056 -0.0789204 0.134316 
394 1 1 25.6786 9.48587 3.47475 0.0608715 -0.0833995 0.0788389 
395 1 3 25.3936 8.81654 4.29575 0.171685 0.00969082 0.0569021 
396 1 1 25.0189 8.29008 5.12107 -0.280863 -0.186323 -0.146239 
397 1 3 25.307 16.4368 1.48666 -0.143036 0.086071 -0.121811 
398 1 1 25.2871 15.4104 1.23209 -0.0140066 -0.0216871 -0.156699 
399 1 3 25.2254 18.5891 9.48445 0.111173 0.00124276 0.00116243 
400 1 1 25.1679 17.805 10.0733 0.13814 -0.0126661 0.0552234 
401 1 3 25.0715 16.9409 10.5216 -0.0666554 -0.0451613 -0.0389429 
402 1 1 24.585 7.89672 5.95308 -0.0961249 -0.0911496 -0.0062623 
403 1 3 25.0907 16.0183 10.8703 -0.00889407 -0.0536193 -0.0356332 
404 1 1 24.872 8.13506 6.84897 0.165525 0.0862309 -0.125834 
405 1 3 25.1281 8.52972 7.69242 -0.156819 0.0517368 0.120021 
406 1 1 25.3494 9.07053 8.48842 -0.137863 0.18968 -0.00378136 
407 1 3 25.2186 15.0678 11.0817 0.00585783 0.0971473 0.0531082 
408 1 1 25.5218 9.7355 9.21323 0.0408256 -0.0355008 -0.114863 
409 1 3 25.6301 10.5011 9.84542 -0.0605953 -0.0335573 -0.0196896 
410 1 1 25.6857 11.3516 10.3681 -0.0252609 0.129334 -0.0668882 
411 1 3 25.3584 14.1332 11.1339 0.0396397 0.110866 -0.043861 
412 1 1 25.5001 13.1944 11.0333 0.0314607 0.170975 -0.0940654 
413 1 3 25.5961 12.2745 10.7872 0.0195864 -0.100231 0.124068 
414 1 1 24.888 19.559 4.45739 -0.103865 0.200926 -0.133415 
415 1 3 24.7761 19.1191 3.75291 -0.0124747 -0.162305 0.0797704 
416 1 1 24.7343 19.3737 8.00357 0.0698722 0.128102 0.0224465 
417 1 3 24.4965 18.7487 8.79369 0.0410846 0.0335169 0.0532934 
418 1 1 24.6269 19.6527 5.29533 0.0150946 -0.111839 0.0770868 
419 1 3 24.07 19.3828 6.00152 -0.0117983 0.0656058 0.0522754 
420 1 1 24.0579 19.2862 7.008 -0.0856213 0.0438165 0.0936753 
421 1 3 24.7067 18.5354 3.05512 0.0386443 0.0751765 -0.0170516 
422 1 1 24.5982 17.7686 2.42209 -0.156004 -0.140053 0.115802 
423 1 3 24.5429 16.9186 1.90041 0.123831 -0.0438519 -0.0181298 
424 1 1 25.2173 14.3544 1.13604 0.0637938 0.0767821 -0.0769896 
425 1 3 25.1642 13.3225 1.18512 0.0441327 -0.0407766 0.0014894 
426 1 1 25.1412 12.2844 1.39043 0.0697251 -0.0366497 -0.0335506 
427 1 3 25.1003 11.343 1.72433 -0.078187 -0.0141664 -0.00574577 
428 1 1 25.0634 10.4628 2.19585 -0.0870226 -0.00921293 -0.0237852 
429 1 3 24.1894 7.76908 5.1125 0.187642 0.0543021 -0.0191253 
430 1 1 24.978 9.66149 2.7848 -0.169705 0.0013181 -0.0730438 
431 1 3 24.8318 8.9532 3.47475 -0.000649368 -0.15793 -0.126476 
432 1 1 24.5544 8.28996 4.29162 0.0227596 0.0948745 0.0780085 
433 1 3 24.5025 15.9414 1.49024 0.0829793 -0.0908599 0.120501 
434 1 1 24.4315 14.8879 1.23522 -0.0620012 0.168849 0.0141452 
435 1 3 24.4072 18.0746 9.48415 -0.067073 0.0169841 -0.137731 
436 1 1 24.3214 17.2727 10.0731 -0.0874827 -0.0365014 -0.0230094 
437 1 3 24.2849 16.3932 10.5462 0.0402842 -0.00898182 -0.0373619 
438 1 1 23.7276 7.35668 5.93838 0.0306041 0.0279063 -0.0165472 
439 1 3 24.0333 7.60325 6.83115 0.00763723 -0.0215454 0.0193921 
440 1 1 24.3044 15.4927 10.8794 -0.148202 0.0624189 0.111314 
441 1 3 24.2806 8.0008 7.70533 0.0877058 0.0599571 -0.141874 
442 1 1 24.5028 8.53797 8.48847 0.155057 -0.100352 0.0893099 
443 1 3 24.6755 9.20331 9.2133 -0.186846 -0.0691553 0.0181227 
444 1 1 24.4049 14.5312 11.0848 0.00793374 0.0864925 0.0604719 
445 1 3 24.7842 9.96811 9.84611 0.111825 -0.0683972 0.00147534 
446 1 1 24.8401 10.8189 10.3672 -0.16571 -0.0484213 0.00472537 
447 1 3 24.7521 11.7399 10.7855 0.0329716 0.0191714 0.0506212 
448 1 1 24.5251 13.5977 11.1325 0.0469155 -0.173776 -0.0386397 
449 1 3 24.6462 12.6602 11.033 0.0504057 0.0532556 0.0397185 
450 1 1 24.2364 19.1801 4.53475 0.0968938 0.0237772 -0.0932378 
451 1 3 24.0101 18.6255 3.73616 0.0639678 0.121564 -0.0364456 
452 1 1 23.8149 18.8068 7.97947 0.212619 0.134229 0.311368 
453 1 3 23.7063 18.2503 8.79437 -0.0350425 0.0320952 0.0318781 
454 1 1 23.7382 19.0949 5.30909 0.0657332 0.111513 -0.0480003 
455 1 3 23.4365 18.9859 6.21271 0.0129634 0.0615945 0.0152645 
456 1 1 23.2018 18.7233 7.12148 0.0964333 0.0643506 -0.119987 
457 1 3 23.861 18.0013 3.05494 0.0810102 -0.105219 0.126183 
458 1 1 23.7519 17.2346 2.42201 0.0318541 0.0540088 0.0336925 
459 1 3 23.6968 16.3858 1.90029 -0.0784758 0.0390201 0.00371359 
460 1 1 24.3744 13.8345 1.13599 -0.111085 -0.161597 0.0492859 
461 1 3 24.3192 12.7944 1.18476 0.0974928 0.0686367 0.0468644 
462 1 1 24.2901 11.7542 1.38907 -0.0319383 0.00724639 -0.078289 
463 1 3 24.2546 10.81 1.72442 -0.0747727 0.0370791 0.164451 
464 1 1 24.2173 9.93058 2.19522 0.115468 0.0316754 0.00964224 
465 1 3 23.3349 7.22976 5.11565 0.0205371 0.00950163 -0.0395127 
466 1 1 23.7058 7.75404 4.29653 0.147301 -0.104235 -0.24153 
467 1 3 24.1307 9.12863 2.78516 -0.109613 0.101585 0.0955394 
468 1 1 23.9854 8.42128 3.47451 -0.05158 -0.101184 0.0123849 
469 1 3 23.6432 15.3711 1.48106 -0.0566594 -0.205537 -0.00717881 
470 1 1 23.5819 14.3485 1.23469 0.113835 -0.0451979 0.244254 
471 1 3 23.561 17.5412 9.48481 0.0241787 0.0308235 0.0600475 
472 1 1 23.4748 16.74 10.0751 -0.0511677 -0.141057 -0.0755334 
473 1 3 23.4377 15.8611 10.5473 0.18962 0.00466913 -0.110973 
474 1 1 22.8826 6.82406 5.9523 -0.0520706 -0.164162 0.00437986 