ITEM: TIMESTEP
100000000
ITEM: NUMBER OF ATOMS
94148
ITEM: BOX BOUNDS pp pp pp
0 62
0 62
0 62
ITEM: ATOMS id mol type x y z 
1 1 1 47.0307 23.3367 18.3031 
2 1 1 47.6887 22.7143 18.0404 
3 1 1 47.3875 23.5055 17.4905 
4 1 1 48.0582 22.8111 17.2497 
5 1 1 46.6455 24.0701 17.8026 
6 1 1 47.697 23.5886 16.6705 
7 1 1 48.3802 22.9868 16.2634 
8 1 1 47.0753 22.5888 18.7975 
9 1 1 47.7101 21.8626 18.5292 
10 1 1 48.2509 21.9949 17.7955 
11 1 1 48.6214 22.1171 16.9409 
12 1 1 48.8951 22.0642 16.1362 
13 1 1 46.3082 23.1763 19.0311 
14 1 1 46.3364 23.7454 18.5235 
15 1 1 45.8106 24.2697 18.2454 
16 1 1 46.9111 24.1288 16.9625 
17 1 1 46.0256 24.5697 17.2643 
18 1 1 48.7599 22.5787 15.5264 
19 1 1 48.36 23.1887 15.2686 
20 1 1 47.8902 23.7269 15.6686 
21 1 1 47.1697 24.2343 16.0558 
22 1 1 45.8273 22.9331 19.5652 
23 1 1 46.5603 22.2484 19.3831 
24 1 1 47.1538 21.6221 19.1238 
25 1 1 47.5856 20.924 18.9548 
26 1 1 48.205 21.1137 18.2693 
27 1 1 48.7608 21.1102 17.4463 
28 1 1 49.142 21.8523 15.2939 
29 1 1 49.1363 21.2115 16.6301 
30 1 1 49.3389 21.196 15.7464 
31 1 1 45.4511 23.7345 19.0743 
32 1 1 45.0298 24.3218 18.405 
33 1 1 45.2247 24.5856 17.6299 
34 1 1 46.2493 24.6147 16.3051 
35 1 1 45.3491 24.7091 16.6565 
36 1 1 48.8512 22.4654 14.7328 
37 1 1 48.3568 23.0864 14.3715 
38 1 1 49.1561 21.6994 14.4117 
39 1 1 47.8624 23.816 14.6654 
40 1 1 47.3387 24.2955 15.0925 
41 1 1 46.4627 24.6359 15.3067 
42 1 1 45.0685 22.9611 19.719 
43 1 1 45.2686 22.2413 20.0533 
44 1 1 45.8836 21.8133 19.9067 
45 1 1 46.5206 21.4574 19.6497 
46 1 1 46.781 20.8181 19.5356 
47 1 1 47.1812 20.138 19.3205 
48 1 1 47.9577 20.2037 18.6164 
49 1 1 48.6335 20.3192 17.8875 
50 1 1 49.1115 20.384 17.07 
51 1 1 49.4123 21.0406 14.9261 
52 1 1 49.4332 20.4254 16.242 
53 1 1 49.4769 20.4811 15.4439 
54 1 1 44.5625 23.4882 19.3639 
55 1 1 43.9776 22.7736 19.8882 
56 1 1 44.3965 24.06 18.7949 
57 1 1 44.3444 24.4387 18.03 
58 1 1 43.6406 23.76 19.03 
59 1 1 44.4784 24.62 17.0803 
60 1 1 45.4985 24.7697 15.6928 
61 1 1 44.5397 24.7336 16.2167 
62 1 1 47.8743 23.5288 13.9573 
63 1 1 48.7429 22.3659 13.8897 
64 1 1 48.1878 22.9274 13.4129 
65 1 1 49.3129 20.8292 14.1268 
66 1 1 49.0117 21.569 13.5814 
67 1 1 47.3138 24.085 14.0893 
68 1 1 46.5561 24.5447 14.4239 
69 1 1 45.6521 24.7568 14.7457 
70 1 1 44.5277 22.1845 20.1589 
71 1 1 45.0448 21.537 20.2982 
72 1 1 45.8393 20.8013 20.0716 
73 1 1 46.3301 19.9537 19.8248 
74 1 1 46.789 19.3097 19.4538 
75 1 1 47.6085 19.3897 18.8618 
76 1 1 48.3354 19.3529 18.1107 
77 1 1 48.9234 19.4932 17.3634 
78 1 1 49.3322 19.5888 16.5499 
79 1 1 49.4686 20.1887 14.7429 
80 1 1 49.4635 19.5707 15.5711 
81 1 1 49.4015 19.9215 13.8846 
82 1 1 43.4401 21.9118 20.1972 
83 1 1 43.3813 23.2005 19.491 
84 1 1 43.1738 22.5684 19.8757 
85 1 1 43.4669 24.1279 18.4032 
86 1 1 43.5608 24.357 17.54 
87 1 1 42.8588 23.6259 18.7831 
88 1 1 43.6455 24.5827 16.5865 
89 1 1 44.6132 24.7621 15.2119 
90 1 1 43.6982 24.6326 15.7012 
91 1 1 47.3482 23.5075 13.2444 
92 1 1 48.4675 22.1635 13.0092 
93 1 1 47.7883 22.6752 12.6958 
94 1 1 49.1521 20.6802 13.2451 
95 1 1 48.6924 21.3705 12.7443 
96 1 1 46.5961 24.1064 13.4377 
97 1 1 45.7861 24.5481 13.8097 
98 1 1 44.7761 24.7202 14.3118 
99 1 1 44.0683 21.3909 20.403 
100 1 1 44.7049 20.532 20.4542 
101 1 1 45.3012 19.819 20.2973 
102 1 1 45.8303 19.1222 19.9647 
103 1 1 47.1827 18.6874 19.019 
104 1 1 46.5103 18.4932 19.3893 
105 1 1 47.8776 18.3937 18.336 
106 1 1 48.6256 18.5909 17.5848 
107 1 1 49.0753 18.7064 16.7704 
108 1 1 49.2694 18.9362 16.0593 
109 1 1 49.1623 19.6743 13.0656 
110 1 1 49.4409 19.3166 14.628 
111 1 1 49.2748 18.6891 15.3054 
112 1 1 49.3133 18.9382 13.7865 
113 1 1 42.6024 21.9904 19.8453 
114 1 1 43.1139 21.1911 20.3004 
115 1 1 42.3537 22.7715 19.269 
116 1 1 41.8032 21.9577 19.3353 
117 1 1 42.6445 23.9737 17.988 
118 1 1 42.629 24.2336 17.0791 
119 1 1 41.9501 23.4095 18.3821 
120 1 1 42.7942 24.4363 16.1198 
121 1 1 43.747 24.6475 14.7329 
122 1 1 42.9349 24.5009 15.294 
123 1 1 46.4844 23.5552 12.6755 
124 1 1 47.0356 23.0184 12.51 
125 1 1 48.0395 21.9483 12.2738 
126 1 1 47.1543 22.4206 12.061 
127 1 1 48.8612 20.4088 12.4051 
128 1 1 48.3151 20.9788 11.9734 
129 1 1 48.8944 19.5453 12.2242 
130 1 1 43.8186 24.6182 13.8726 
131 1 1 45.8231 24.0798 12.9608 
132 1 1 44.6449 24.5303 13.3322 
133 1 1 43.7783 20.4946 20.4716 
134 1 1 44.3589 19.6798 20.485 
135 1 1 45.8144 18.3224 19.7215 
136 1 1 44.8583 19.0821 20.3153 
137 1 1 45.135 18.3071 20.0677 
138 1 1 47.0252 17.9227 18.8666 
139 1 1 46.2047 17.7612 19.2607 
140 1 1 47.4027 17.4864 18.2281 
141 1 1 48.1571 17.7576 17.5955 
142 1 1 48.6857 18.056 16.9881 
143 1 1 48.8675 18.021 16.0738 
144 1 1 49.1382 18.7112 12.9343 
145 1 1 49.2026 18.3755 14.4932 
146 1 1 48.9768 17.97 15.1634 
147 1 1 49.1444 18.0464 13.6582 
148 1 1 42.1694 21.2663 19.8819 
149 1 1 42.8196 20.4391 20.2902 
150 1 1 41.4515 22.6871 18.6513 
151 1 1 41.4236 21.1186 19.4259 
152 1 1 40.9521 21.7633 18.701 
153 1 1 41.7597 23.8012 17.4581 
154 1 1 41.8738 24.1179 16.4479 
155 1 1 41.1509 23.2064 17.8573 
156 1 1 42.1023 24.263 15.4687 
157 1 1 42.9231 24.4946 14.2684 
158 1 1 42.3112 24.3197 14.757 
159 1 1 45.8039 23.4991 12.3225 
160 1 1 46.2769 22.8396 11.945 
161 1 1 46.793 22.0117 11.448 
162 1 1 47.5765 21.5453 11.5493 
163 1 1 48.4775 20.0457 11.6402 
164 1 1 47.9838 20.6132 11.3274 
165 1 1 48.8778 18.6387 12.0571 
166 1 1 48.5919 19.2524 11.552 
167 1 1 43.7151 24.3879 13.1242 
168 1 1 43.0095 24.4119 13.5022 
169 1 1 45.0551 23.8632 12.4944 
170 1 1 44.103 23.9413 12.5256 
171 1 1 43.327 19.5553 20.4321 
172 1 1 43.7942 18.7405 20.4448 
173 1 1 45.4777 17.6575 19.5842 
174 1 1 44.248 18.0601 20.2494 
175 1 1 44.7535 17.5501 19.9188 
176 1 1 45.7033 17.0422 19.1315 
177 1 1 46.5204 17.1596 18.6953 
178 1 1 46.8838 16.7327 17.9747 
179 1 1 47.5976 16.9548 17.3734 
180 1 1 48.3301 17.4151 16.8109 
181 1 1 48.4351 17.1222 16.0526 
182 1 1 48.6601 17.2443 15.3646 
183 1 1 48.9273 17.7714 12.5958 
184 1 1 48.7066 17.8963 11.6798 
185 1 1 48.9246 17.377 14.4015 
186 1 1 48.9471 17.3027 13.3768 
187 1 1 41.9603 20.3844 19.9409 
188 1 1 42.3651 19.5573 20.2102 
189 1 1 40.7209 22.4627 18.0214 
190 1 1 40.2833 21.8348 17.8931 
191 1 1 41.2307 20.3628 19.4714 
192 1 1 40.7415 20.8038 18.9978 
193 1 1 40.3859 21.2027 18.4005 
194 1 1 41.0795 23.6336 16.8443 
195 1 1 41.2232 23.842 15.8736 
196 1 1 40.498 22.9956 17.0488 
197 1 1 41.4739 23.9286 14.7421 
198 1 1 42.096 24.1577 13.9495 
199 1 1 45.264 23.1604 11.8781 
200 1 1 45.4721 22.549 11.4556 
201 1 1 46.0908 22.1012 11.2014 
202 1 1 46.669 21.3892 10.8907 
203 1 1 47.3419 20.6553 10.7519 
204 1 1 48.0387 19.7437 10.8209 
205 1 1 48.3802 18.534 11.028 
206 1 1 43.1633 23.9837 12.7319 
207 1 1 42.2949 23.9397 13.0479 
208 1 1 44.4483 23.3033 11.9923 
209 1 1 43.4309 23.4185 12.0818 
210 1 1 42.8639 18.6414 20.2459 
211 1 1 43.3326 17.84 20.1331 
212 1 1 44.8959 16.8975 19.5018 
213 1 1 43.8729 17.1067 19.8559 
214 1 1 45.1534 16.3764 18.8847 
215 1 1 46.0096 16.4615 18.4427 
216 1 1 48.4039 17.4924 11.0173 
217 1 1 48.6485 17.1024 11.9116 
218 1 1 46.26 16.012 17.7701 
219 1 1 47.0537 16.2133 17.3078 
220 1 1 47.8795 16.6291 16.5331 
221 1 1 48.1952 16.5166 15.5738 
222 1 1 48.5228 16.4957 14.7015 
223 1 1 48.6993 16.8103 12.7782 
224 1 1 48.6452 16.5636 13.7212 
225 1 1 42.0295 18.559 19.8624 
226 1 1 41.4821 19.4577 19.6547 
227 1 1 40.091 22.2497 17.2056 
228 1 1 39.7652 21.5244 17.3167 
229 1 1 39.9427 20.9846 17.8548 
230 1 1 40.6355 19.8781 19.0485 
231 1 1 40.2201 20.4561 18.4936 
232 1 1 40.4824 23.1995 16.1474 
233 1 1 40.6949 23.3923 15.2132 
234 1 1 39.9467 22.5089 16.3497 
235 1 1 40.8073 23.2717 14.2674 
236 1 1 41.4555 23.6768 13.6483 
237 1 1 44.688 22.6139 11.4192 
238 1 1 45.1446 21.9042 10.8324 
239 1 1 45.9333 21.2994 10.5519 
240 1 1 46.5804 20.5806 10.2493 
241 1 1 47.29 19.8755 10.121 
242 1 1 47.8163 18.9126 10.1723 
243 1 1 47.9859 17.9323 10.1978 
244 1 1 42.5165 23.461 12.3511 
245 1 1 41.5905 23.2828 12.8298 
246 1 1 43.7224 22.6973 11.5473 
247 1 1 42.8075 22.837 11.6888 
248 1 1 42.5457 17.8537 19.8588 
249 1 1 42.9716 17.1985 19.7447 
250 1 1 44.2021 16.3902 19.2335 
251 1 1 43.1948 16.5556 19.3281 
252 1 1 44.4946 15.8016 18.5825 
253 1 1 45.3705 15.8535 18.1762 
254 1 1 48.109 16.906 10.3935 
255 1 1 48.289 16.5417 11.2947 
256 1 1 48.3356 16.172 12.2087 
257 1 1 45.7005 15.4145 17.4464 
258 1 1 46.5847 15.5544 16.9976 
259 1 1 47.2489 15.8142 16.5904 
260 1 1 47.6968 15.6546 15.815 
261 1 1 47.9968 15.6906 14.9763 
262 1 1 48.2548 15.7835 14.0753 
263 1 1 48.3554 15.9936 13.1709 
264 1 1 41.8714 17.7494 19.4669 
265 1 1 41.2661 18.3557 19.2937 
266 1 1 40.6985 18.9802 18.935 
267 1 1 39.4871 21.6225 16.4618 
268 1 1 39.5003 20.784 17.1349 
269 1 1 39.6893 20.2123 17.7433 
270 1 1 40.0961 19.5968 18.3872 
271 1 1 40.0491 22.7075 15.4802 
272 1 1 40.3034 22.8321 14.7275 
273 1 1 39.6393 22.076 15.6373 
274 1 1 40.3131 22.5666 13.9798 
275 1 1 40.906 22.9499 13.3513 
276 1 1 44.0895 22.019 10.972 
277 1 1 44.3071 21.461 10.4816 
278 1 1 44.9985 21.0693 10.1613 
279 1 1 45.7192 20.5016 9.8946 
280 1 1 46.456 19.8409 9.64106 
281 1 1 47.0256 19.1298 9.54174 
282 1 1 47.4249 18.2589 9.49064 
283 1 1 47.688 17.2319 9.57909 
284 1 1 41.9289 22.8749 12.0894 
285 1 1 41.1626 22.549 12.4379 
286 1 1 43.2153 22.1522 11.1111 
287 1 1 42.2394 22.2908 11.3961 
288 1 1 42.2752 16.9817 19.3038 
289 1 1 43.5505 15.961 18.8588 
290 1 1 42.7404 16.1346 18.8821 
291 1 1 47.7756 16.2042 9.81312 
292 1 1 43.8877 15.3527 18.1007 
293 1 1 44.7361 15.2714 17.8053 
294 1 1 47.9894 15.8877 10.6689 
295 1 1 48.0197 15.5937 11.5766 
296 1 1 48.0093 15.2999 12.5557 
297 1 1 45.1582 14.887 17.0713 
298 1 1 45.962 15.0982 16.7671 
299 1 1 46.7583 15.0969 16.1527 
300 1 1 47.2219 14.9024 15.2679 
301 1 1 47.6692 14.9749 14.4203 
302 1 1 47.8598 15.1363 13.426 
303 1 1 40.1083 18.7189 18.1832 
304 1 1 41.3437 17.5161 18.9521 
305 1 1 40.6867 18.1164 18.6166 
306 1 1 39.3829 21.3222 15.5461 
307 1 1 39.2216 20.7311 16.2589 
308 1 1 39.3472 19.9884 16.9659 
309 1 1 39.6668 19.301 17.5645 
310 1 1 39.7684 22.0186 14.798 
311 1 1 39.9453 21.8949 13.7653 
312 1 1 40.4122 22.1032 13.0182 
313 1 1 43.4024 21.4338 10.5041 
314 1 1 43.9872 20.902 10.0226 
315 1 1 44.7348 20.3856 9.61146 
316 1 1 45.4656 19.8211 9.28373 
317 1 1 46.0692 19.1479 9.0368 
318 1 1 46.6348 18.4771 8.83097 
319 1 1 47.1677 17.5095 8.82158 
320 1 1 47.4509 16.5256 8.94413 
321 1 1 41.4247 22.1983 11.78 
322 1 1 40.8115 21.9071 12.1148 
323 1 1 42.4755 21.6421 10.8472 
324 1 1 41.6666 21.7295 11.2011 
325 1 1 41.5341 16.8216 18.6593 
326 1 1 42.0379 16.2374 18.5502 
327 1 1 42.8093 15.4892 18.2799 
328 1 1 43.2941 14.9701 17.6681 
329 1 1 47.5525 15.5319 9.03659 
330 1 1 47.7364 15.2449 9.89917 
331 1 1 44.0978 14.7621 17.3449 
332 1 1 47.7239 14.9937 10.8103 
333 1 1 47.626 14.6959 11.8232 
334 1 1 47.5231 14.4672 12.7964 
335 1 1 44.6966 14.3929 16.668 
336 1 1 45.5801 14.4443 16.2072 
337 1 1 46.3468 14.347 15.4329 
338 1 1 46.9188 14.3362 14.6855 
339 1 1 47.3208 14.3186 13.7442 
340 1 1 39.3825 21.0956 14.7947 
341 1 1 39.6026 18.4466 17.2147 
342 1 1 40.1217 17.8735 17.745 
343 1 1 40.8007 17.1688 18.1481 
344 1 1 39.1857 20.5338 15.3359 
345 1 1 39.0998 19.8323 16.0141 
346 1 1 39.2994 19.1308 16.6734 
347 1 1 39.2737 18.231 16.4059 
348 1 1 39.5521 21.3492 14.0569 
349 1 1 39.7783 21.32 13.2039 
350 1 1 40.2147 21.2348 12.3361 
351 1 1 42.5554 21.0369 10.3113 
352 1 1 43.1331 20.7089 9.8824 
353 1 1 43.7729 20.2694 9.38994 
354 1 1 44.3992 19.7523 8.95534 
355 1 1 45.1389 19.1573 8.61928 
356 1 1 45.7699 18.4745 8.34343 
357 1 1 46.3566 17.7578 8.23718 
358 1 1 46.8992 16.756 8.21525 
359 1 1 47.1908 15.7331 8.20995 
360 1 1 40.7914 21.2692 11.4353 
361 1 1 41.6348 21.0363 10.5952 
362 1 1 41.2823 16.321 18.0373 
363 1 1 41.8497 15.5953 17.7914 
364 1 1 42.5134 14.8416 17.4393 
365 1 1 43.2491 14.4256 17.0768 
366 1 1 47.4252 14.6927 8.51797 
367 1 1 47.4711 14.484 9.29866 
368 1 1 47.5059 14.2324 10.2638 
369 1 1 43.9536 14.0747 16.5988 
370 1 1 47.3652 14.1055 11.1477 
371 1 1 47.2166 13.8012 12.1109 
372 1 1 47.009 13.6963 13.1036 
373 1 1 44.6743 13.8605 16.0293 
374 1 1 45.394 13.7481 15.464 
375 1 1 46.109 13.6402 14.7858 
376 1 1 46.5937 13.636 13.9908 
377 1 1 39.1107 20.3375 14.33 
378 1 1 39.6848 17.6246 16.9123 
379 1 1 40.1947 17.1407 17.3407 
380 1 1 40.5859 16.3696 17.317 
381 1 1 38.963 19.5958 15.1016 
382 1 1 39.0442 18.945 15.8071 
383 1 1 39.0107 18.0037 15.6197 
384 1 1 39.3483 17.4908 16.2091 
385 1 1 39.3731 20.572 13.3731 
386 1 1 39.6718 20.5552 12.4503 
387 1 1 40.0526 20.5107 11.5743 
388 1 1 42.1224 20.4925 9.8351 
389 1 1 42.7985 20.125 9.23977 
390 1 1 43.4287 19.6308 8.74987 
391 1 1 44.1528 19.0791 8.25498 
392 1 1 44.8728 18.4675 7.94716 
393 1 1 45.5302 17.7638 7.69729 
394 1 1 46.1758 17.0194 7.61271 
395 1 1 46.6475 16.0125 7.53768 
396 1 1 47.0293 14.9864 7.61094 
397 1 1 40.6415 20.4216 10.7167 
398 1 1 41.2625 20.2891 9.94082 
399 1 1 40.9659 15.6147 17.2498 
400 1 1 41.5628 14.9292 17.1295 
401 1 1 42.2949 14.2787 16.8252 
402 1 1 47.1851 13.9907 7.82788 
403 1 1 42.9893 13.7213 16.384 
404 1 1 47.3432 13.657 8.63431 
405 1 1 47.2761 13.5467 9.61678 
406 1 1 47.1384 13.3718 10.5965 
407 1 1 43.7895 13.4296 15.9947 
408 1 1 46.998 13.1133 11.5019 
409 1 1 46.8041 12.9498 12.4433 
410 1 1 46.3825 12.9261 13.274 
411 1 1 44.4522 13.1908 15.4239 
412 1 1 45.1715 13.038 14.8127 
413 1 1 45.7881 12.9055 14.1143 
414 1 1 38.8156 19.3333 14.3741 
415 1 1 38.9141 19.5767 13.5643 
416 1 1 39.8067 16.666 16.454 
417 1 1 40.2217 15.7298 16.5362 
418 1 1 38.7478 18.6459 14.8635 
419 1 1 38.7524 17.5744 14.9611 
420 1 1 39.0737 16.8703 15.4695 
421 1 1 39.133 19.7521 12.7636 
422 1 1 39.4379 19.8004 11.8507 
423 1 1 39.9039 19.8192 10.9327 
424 1 1 41.8848 19.8658 9.17562 
425 1 1 42.5302 19.4945 8.52633 
426 1 1 43.2613 18.9829 7.97249 
427 1 1 43.9897 18.3773 7.56089 
428 1 1 44.6513 17.7472 7.27323 
429 1 1 46.835 14.2682 7.06387 
430 1 1 45.3676 17.0467 7.05358 
431 1 1 45.94 16.2556 6.92871 
432 1 1 46.4849 15.279 7.02643 
433 1 1 40.4631 19.8157 10.0482 
434 1 1 41.029 19.5683 9.18459 
435 1 1 40.7232 14.8798 16.5636 
436 1 1 41.3755 14.2555 16.4965 
437 1 1 42.0931 13.6052 16.1717 
438 1 1 46.9785 13.1786 7.14125 
439 1 1 47.1434 12.9455 8.02213 
440 1 1 42.7742 13.0662 15.8001 
441 1 1 47.1729 12.7694 9.01999 
442 1 1 47.0154 12.6031 9.97348 
443 1 1 46.7899 12.388 10.866 
444 1 1 43.5739 12.693 15.3758 
445 1 1 46.5572 12.2618 11.7665 
446 1 1 46.1349 12.1992 12.7263 
447 1 1 45.5359 12.2069 13.5482 
448 1 1 44.2225 12.4336 14.8543 
449 1 1 44.8896 12.306 14.2109 
450 1 1 38.5984 18.6806 13.8604 
451 1 1 38.7038 18.9027 12.9645 
452 1 1 39.4575 15.8351 15.7534 
453 1 1 39.9414 15.0315 15.964 
454 1 1 38.5206 17.8255 14.1855 
455 1 1 38.6032 16.8971 14.4775 
456 1 1 38.8329 16.0006 14.8516 
457 1 1 38.9562 19.0155 12.0433 
458 1 1 39.285 19.1029 11.2256 
459 1 1 39.7585 19.122 10.3213 
460 1 1 41.6322 19.1942 8.48826 
461 1 1 42.3226 18.7843 7.84269 
462 1 1 43.1347 18.2428 7.34567 
463 1 1 43.7857 17.6709 6.85576 
464 1 1 44.5238 17.0124 6.6035 
465 1 1 46.6231 13.487 6.4155 
466 1 1 46.324 14.4196 6.35642 
467 1 1 45.1702 16.3138 6.38181 
468 1 1 45.7846 15.4358 6.40707 
469 1 1 40.2841 19.0953 9.38491 
470 1 1 40.7209 18.8288 8.53309 
471 1 1 40.4561 14.1715 15.8876 
472 1 1 41.1375 13.5158 15.7878 
473 1 1 41.8284 12.8363 15.4887 
474 1 1 46.7411 12.4595 6.46181 
475 1 1 46.9293 12.1498 7.36577 
476 1 1 47.0112 11.9261 8.35719 
477 1 1 42.5766 12.2929 15.1884 
478 1 1 46.8909 11.8322 9.26629 
479 1 1 46.7341 11.6928 10.2129 
480 1 1 46.4343 11.5469 11.1788 
481 1 1 43.3241 11.8984 14.7832 
482 1 1 46.0273 11.4312 12.0289 
483 1 1 45.4507 11.4593 12.8434 
484 1 1 44.7088 11.5203 13.5757 
485 1 1 44.0325 11.6612 14.2313 
486 1 1 38.4185 18.0239 13.2394 
487 1 1 38.5106 18.1802 12.3118 
488 1 1 39.2345 15.1606 15.0817 
489 1 1 39.725 14.2816 15.2507 
490 1 1 38.3662 17.1054 13.5919 
491 1 1 38.504 16.1822 13.7804 
492 1 1 38.7177 15.388 14.1037 
493 1 1 38.781 18.2231 11.3701 
494 1 1 39.2127 18.4007 10.4413 
495 1 1 39.618 18.4534 9.51547 
496 1 1 46.3289 12.7782 5.73006 
497 1 1 41.4894 18.4972 7.81928 
498 1 1 42.1502 18.0342 7.11222 
499 1 1 42.8845 17.5722 6.63635 
500 1 1 43.6558 16.9983 6.13274 
501 1 1 44.283 16.3455 5.93521 
502 1 1 46.0292 13.7518 5.72987 
503 1 1 45.6028 14.7612 5.78897 
504 1 1 44.9455 15.5783 5.7937 
505 1 1 40.0307 18.3618 8.60083 
506 1 1 40.5805 18.0852 7.87201 
507 1 1 46.4753 11.7789 5.83301 
508 1 1 40.2831 13.5343 15.1942 
509 1 1 40.9183 12.7682 15.041 
510 1 1 41.6261 12.1092 14.84 
511 1 1 46.7089 11.423 6.73806 
512 1 1 46.8805 11.1951 7.63731 
513 1 1 46.8449 11.0123 8.59854 
514 1 1 42.4247 11.5542 14.4939 
515 1 1 46.6759 10.9108 9.59895 
516 1 1 46.3948 10.7632 10.5205 
517 1 1 45.9475 10.7107 11.3374 
518 1 1 43.2171 11.2026 14.0413 
519 1 1 45.2616 10.6843 12.192 
520 1 1 44.6806 10.7552 12.9166 
521 1 1 43.9049 10.8136 13.4945 
522 1 1 38.2616 17.2814 12.5461 
523 1 1 38.3713 17.3846 11.5989 
524 1 1 39.0401 14.508 14.3687 
525 1 1 39.5844 13.6538 14.5223 
526 1 1 38.2428 16.3907 12.7768 
527 1 1 38.3883 15.5216 13.0628 
528 1 1 38.5051 14.7057 13.3634 
529 1 1 38.6211 17.608 10.6104 
530 1 1 38.9895 17.6734 9.71793 
531 1 1 39.3338 17.7409 8.86215 
532 1 1 46.1392 12.0328 5.04499 
533 1 1 45.8696 13.0534 5.0469 
534 1 1 41.3201 17.7389 7.10729 
535 1 1 41.9897 17.3866 6.41545 
536 1 1 42.7495 16.8873 5.88735 
537 1 1 43.47 16.2597 5.50303 
538 1 1 44.2316 15.528 5.28132 
539 1 1 45.3939 13.8946 5.05843 
540 1 1 44.8452 14.7325 5.1793 
541 1 1 39.7764 17.5574 7.94262 
542 1 1 40.4758 17.4265 7.13129 
543 1 1 46.2148 11.0383 5.14972 
544 1 1 46.5085 10.7317 6.02556 
545 1 1 40.2645 12.8747 14.4284 
546 1 1 40.8525 12.0704 14.2171 
547 1 1 41.5363 11.4027 14.0627 
548 1 1 46.6562 10.4703 6.98223 
549 1 1 46.7011 10.2396 8.01631 
550 1 1 46.5833 10.139 8.9434 
551 1 1 42.2201 10.8654 13.77 
552 1 1 46.2848 9.95178 9.8389 
553 1 1 45.8839 9.9761 10.6744 
554 1 1 45.203 9.98982 11.398 
555 1 1 42.9675 10.4606 13.3529 
556 1 1 44.5265 10.0768 12.1787 
557 1 1 43.8013 10.1903 12.8573 
558 1 1 38.1568 16.5077 11.8126 
559 1 1 38.2238 16.7987 10.8794 
560 1 1 38.9493 13.8554 13.6112 
561 1 1 39.5181 13.0473 13.7368 
562 1 1 38.2288 15.6096 12.1071 
563 1 1 38.3042 14.7751 12.4036 
564 1 1 38.4471 13.9007 12.6838 
565 1 1 38.3969 16.9185 9.88147 
566 1 1 38.7486 17.0099 8.96979 
567 1 1 39.0912 17.0138 8.08994 
568 1 1 45.8837 11.3513 4.37453 
569 1 1 45.6235 12.3049 4.40178 
570 1 1 45.1711 13.2803 4.34645 
571 1 1 41.0743 17.1201 6.3975 
572 1 1 41.828 16.7596 5.68495 
573 1 1 42.5953 16.1807 5.254 
574 1 1 43.3926 15.5968 4.85019 
575 1 1 44.0443 14.8674 4.58601 
576 1 1 44.6473 14.1233 4.47061 
577 1 1 39.707 16.9185 7.20852 
578 1 1 40.2453 16.7499 6.40227 
579 1 1 46.021 10.3521 4.48867 
580 1 1 46.3481 10.0404 5.34037 
581 1 1 46.5088 9.75768 6.24798 
582 1 1 40.1374 12.2571 13.6297 
583 1 1 40.7087 11.3896 13.4785 
584 1 1 41.3832 10.7348 13.3036 
585 1 1 46.5858 9.51389 7.23958 
586 1 1 46.4528 9.37041 8.2245 
587 1 1 46.178 9.21493 9.15434 
588 1 1 42.1262 10.2091 13.0094 
589 1 1 45.7796 9.20289 10.0652 
590 1 1 45.0653 9.24418 10.8377 
591 1 1 44.4355 9.36654 11.524 
592 1 1 42.8873 9.83901 12.6109 
593 1 1 43.6822 9.54832 12.1071 
594 1 1 38.098 15.8725 11.0576 
595 1 1 38.0587 16.0806 10.0755 
596 1 1 38.7944 13.1957 12.8667 
597 1 1 39.4344 12.369 12.988 
598 1 1 38.0402 14.9881 11.2783 
599 1 1 38.0623 14.1673 11.6114 
600 1 1 38.331 13.3214 11.9112 
601 1 1 38.2116 16.2121 9.13778 
602 1 1 38.5094 16.3087 8.24227 
603 1 1 38.9383 16.3068 7.34017 
604 1 1 45.6418 10.6807 3.69668 
605 1 1 45.8234 9.66376 3.79875 
606 1 1 45.4154 9.97761 3.03788 
607 1 1 45.3724 11.6793 3.62791 
608 1 1 44.9213 12.6348 3.62701 
609 1 1 44.4009 13.4581 3.79499 
610 1 1 40.9159 16.4932 5.64986 
611 1 1 41.6823 16.1155 4.99438 
612 1 1 42.4644 15.5692 4.47218 
613 1 1 43.131 14.9312 4.1059 
614 1 1 43.7984 14.2511 3.87641 
615 1 1 39.4679 16.212 6.42411 
616 1 1 40.1312 16.0276 5.61948 
617 1 1 46.1065 9.278 4.6838 
618 1 1 46.3506 9.05999 5.58984 
619 1 1 46.3872 8.78881 6.57493 
620 1 1 39.9392 11.6094 12.9318 
621 1 1 40.5187 10.7947 12.7589 
622 1 1 41.1844 10.1107 12.5748 
623 1 1 46.2555 8.60185 7.5778 
624 1 1 46.0176 8.41633 8.47468 
625 1 1 45.637 8.39964 9.43529 
626 1 1 41.9034 9.60412 12.262 
627 1 1 44.9403 8.43752 10.2295 
628 1 1 44.2939 8.6118 10.869 
629 1 1 43.5796 8.89171 11.4184 
630 1 1 42.6896 9.18507 11.8937 
631 1 1 45.7622 8.64325 3.99742 
632 1 1 45.472 8.84335 3.05364 
633 1 1 37.8817 15.1937 10.3007 
634 1 1 37.8389 15.3735 9.28005 
635 1 1 38.7436 12.4967 12.1135 
636 1 1 39.2881 11.6708 12.2527 
637 1 1 37.9004 14.2803 10.5845 
638 1 1 37.9554 13.4274 10.9492 
639 1 1 38.2167 12.6148 11.124 
640 1 1 38.0381 15.5252 8.41113 
641 1 1 38.3479 15.5717 7.42601 
642 1 1 38.766 15.5499 6.47935 
643 1 1 45.1224 10.9882 2.97139 
644 1 1 45.1319 9.53053 2.35051 
645 1 1 44.9254 10.4404 2.35116 
646 1 1 44.7204 12.0369 2.92865 
647 1 1 44.1728 12.8385 3.04362 
648 1 1 43.5638 13.6082 3.1851 
649 1 1 40.7912 15.8134 4.8731 
650 1 1 41.4734 15.4634 4.1586 
651 1 1 42.2309 14.9076 3.66649 
652 1 1 42.9212 14.3034 3.36703 
653 1 1 39.341 15.5284 5.66969 
654 1 1 39.9027 15.387 4.82208 
655 1 1 46.0808 8.27544 4.92658 
656 1 1 46.2764 8.14689 5.95143 
657 1 1 46.1039 7.87926 6.85828 
658 1 1 39.7909 10.8138 12.1807 
659 1 1 40.359 10.0719 12.1556 
660 1 1 41.0028 9.35537 11.8527 
661 1 1 45.8699 7.69881 7.8138 
662 1 1 45.4895 7.64429 8.76382 
663 1 1 44.8994 7.62013 9.55845 
664 1 1 41.8695 8.8421 11.5496 
665 1 1 44.1258 7.80546 10.1972 
666 1 1 43.4575 8.1151 10.7278 
667 1 1 42.6984 8.50895 11.1765 
668 1 1 45.7477 7.56941 4.40231 
669 1 1 45.4545 7.82492 3.46456 
670 1 1 45.1587 8.72468 2.28283 
671 1 1 44.9287 9.12039 1.71302 
672 1 1 45.2388 7.97632 2.62951 
673 1 1 37.7868 14.5262 9.57175 
674 1 1 37.7763 14.6473 8.56975 
675 1 1 38.6157 11.7981 11.4463 
676 1 1 39.1399 10.9427 11.5286 
677 1 1 37.7384 13.5814 9.89168 
678 1 1 37.894 12.6964 10.1912 
679 1 1 38.1998 11.828 10.4566 
680 1 1 37.94 14.7759 7.5842 
681 1 1 38.2309 14.8309 6.68893 
682 1 1 38.6751 14.8269 5.73199 
683 1 1 44.5049 11.4205 2.22889 
684 1 1 44.7402 9.87708 1.60124 
685 1 1 44.3345 10.796 1.54207 
686 1 1 43.9927 12.2536 2.29194 
687 1 1 43.4019 12.9648 2.4549 
688 1 1 42.6987 13.624 2.64623 
689 1 1 40.6088 15.1505 4.10864 
690 1 1 41.2897 14.7891 3.42686 
691 1 1 42.0093 14.2714 2.93869 
692 1 1 39.1474 14.8193 4.8259 
693 1 1 39.7658 14.6675 3.98436 
694 1 1 45.9102 7.34334 5.33877 
695 1 1 45.9286 7.16602 6.24027 
696 1 1 45.7081 6.93203 7.2152 
697 1 1 39.6398 10.0336 11.5257 
698 1 1 40.2711 9.31362 11.4421 
699 1 1 41.0308 8.69483 11.1628 
700 1 1 45.3944 6.8398 8.16976 
701 1 1 44.8263 6.77468 9.02434 
702 1 1 44.0152 7.00052 9.59837 
703 1 1 41.8084 8.17425 10.8724 
704 1 1 43.2571 7.31264 10.0841 
705 1 1 42.5615 7.68852 10.5077 
706 1 1 45.6275 6.65624 4.74787 
707 1 1 45.425 6.78819 3.79256 
708 1 1 45.1248 6.99875 2.87947 
709 1 1 44.5135 9.07675 0.912338 
710 1 1 44.9005 8.20819 1.60622 
711 1 1 45.0123 7.39775 2.0677 
712 1 1 37.6247 13.7456 8.85493 
713 1 1 37.6108 13.8495 7.86748 
714 1 1 38.4979 10.987 10.6774 
715 1 1 39.0206 10.1757 10.8108 
716 1 1 37.6392 12.8611 9.21392 
717 1 1 37.7755 11.9105 9.49299 
718 1 1 38.0416 11.0657 9.80482 
719 1 1 37.7882 13.9909 6.89257 
720 1 1 38.1039 14.0511 5.94401 
721 1 1 38.4897 14.067 5.07476 
722 1 1 43.7587 11.5679 1.5626 
723 1 1 44.1208 10.1158 0.846834 
724 1 1 43.6046 10.8442 0.828474 
725 1 1 43.2115 12.3705 1.74144 
726 1 1 42.52 12.9522 1.90915 
727 1 1 41.8012 13.6071 2.20393 
728 1 1 40.3988 14.3932 3.31744 
729 1 1 41.0872 14.1138 2.66578 
730 1 1 39.0487 14.1238 4.16601 
731 1 1 39.5499 13.9768 3.30791 
732 1 1 45.7268 6.43302 5.70521 
733 1 1 45.561 6.25699 6.65933 
734 1 1 45.2435 6.11651 7.54522 
735 1 1 39.5604 9.26437 10.7971 
736 1 1 40.2126 8.5396 10.6652 
737 1 1 40.9337 7.89087 10.5207 
738 1 1 44.6768 6.00569 8.37451 
739 1 1 44.0049 6.13501 8.94966 
740 1 1 43.2533 6.50008 9.38018 
741 1 1 41.7194 7.37271 10.2198 
742 1 1 42.4391 6.90872 9.85283 
743 1 1 45.3578 5.82393 4.12845 
744 1 1 45.4243 5.71537 5.05368 
745 1 1 45.2197 6.01293 3.32442 
746 1 1 45.1217 5.07287 3.43723 
747 1 1 43.9637 9.44643 0.301488 
748 1 1 45.028 6.05532 2.4907 
749 1 1 44.1528 8.62595 61.9647 
750 1 1 44.9421 6.6384 1.99454 
751 1 1 44.5819 8.08109 0.678273 
752 1 1 44.7831 7.2873 1.31362 
753 1 1 37.5154 12.9852 8.16013 
754 1 1 37.4646 13.1466 7.16592 
755 1 1 38.394 10.272 10.0179 
756 1 1 38.9114 9.37215 10.1859 
757 1 1 37.5483 12.0917 8.53104 
758 1 1 37.7079 11.16 8.85483 
759 1 1 37.9582 10.3194 9.09146 
760 1 1 37.6621 13.2422 6.21508 
761 1 1 37.9459 13.2719 5.25451 
762 1 1 38.3366 13.3644 4.39502 
763 1 1 43.0169 11.6239 0.963542 
764 1 1 43.4664 10.0907 0.239239 
765 1 1 42.8796 10.896 0.318852 
766 1 1 42.3745 12.2616 1.16604 
767 1 1 41.6586 12.8595 1.50115 
768 1 1 40.8883 13.4226 1.99219 
769 1 1 40.1278 13.7329 2.60533 
770 1 1 38.7699 13.361 3.40237 
771 1 1 39.4124 13.2652 2.52144 
772 1 1 45.4223 5.52025 6.02563 
773 1 1 45.1665 5.39414 6.82804 
774 1 1 44.604 5.37072 7.72314 
775 1 1 39.4136 8.49981 10.0591 
776 1 1 40.0868 7.78701 9.99969 
777 1 1 40.8323 7.16545 9.89527 
778 1 1 43.86 5.36603 8.29677 
779 1 1 43.0966 5.63781 8.68528 
780 1 1 42.3703 6.12767 9.16412 
781 1 1 41.5845 6.58715 9.53676 
782 1 1 43.981 4.74183 7.60015 
783 1 1 45.2007 4.94922 4.33442 
784 1 1 45.1866 4.83436 5.33518 
785 1 1 44.9791 5.09259 2.4447 
786 1 1 45.0469 4.26653 3.66354 
787 1 1 45.0105 4.35653 2.87072 
788 1 1 44.9034 4.27238 2.00401 
789 1 1 43.367 9.24973 61.5056 
790 1 1 43.7731 8.29479 61.1682 
791 1 1 44.923 5.81352 1.67267 
792 1 1 44.3212 7.75736 61.7705 
793 1 1 44.8217 6.4214 1.09073 
794 1 1 44.68 7.1436 0.421642 
795 1 1 37.3671 12.1998 7.51823 
796 1 1 37.3299 12.3125 6.51026 
797 1 1 38.2612 9.50869 9.35149 
798 1 1 38.7566 8.64107 9.45837 
799 1 1 37.4078 11.2836 7.92247 
800 1 1 37.5532 10.3516 8.1986 
801 1 1 37.781 9.46484 8.49087 
802 1 1 37.5119 12.4134 5.51517 
803 1 1 37.8419 12.5904 4.64073 
804 1 1 38.1543 12.6289 3.67028 
805 1 1 42.2283 11.5564 0.407832 
806 1 1 42.7008 10.1089 61.5601 
807 1 1 42.1204 10.8175 61.7112 
808 1 1 41.543 12.1669 0.719523 
809 1 1 40.7543 12.6461 1.17873 
810 1 1 40.0134 12.9801 1.84367 
811 1 1 38.6509 12.5919 2.72065 
812 1 1 39.2298 12.512 1.97723 
813 1 1 45.0151 4.71104 6.12999 
814 1 1 44.6132 4.71326 6.97116 
815 1 1 39.3078 7.80379 9.41502 
816 1 1 40.009 7.05017 9.36544 
817 1 1 40.6924 6.35177 9.13087 
818 1 1 43.0722 4.74158 7.94595 
819 1 1 42.2382 5.29849 8.46562 
820 1 1 41.5107 5.7983 8.82027 
821 1 1 44.02 4.15806 6.96559 
822 1 1 43.3993 4.19905 7.39337 
823 1 1 44.811 4.17276 5.52298 
824 1 1 44.9789 4.02893 4.60689 
825 1 1 44.9253 3.52688 3.79019 
826 1 1 44.8659 4.88487 1.31206 
827 1 1 44.9274 3.50807 2.77388 
828 1 1 44.8784 3.50994 1.80579 
829 1 1 44.8383 4.02952 1.13888 
830 1 1 42.6396 9.3296 60.939 
831 1 1 43.1211 8.68714 60.7856 
832 1 1 43.3236 8.00095 60.4285 
833 1 1 43.9575 7.5237 60.8651 
834 1 1 44.8679 5.5716 0.701856 
835 1 1 44.5339 6.89643 61.4295 
836 1 1 44.7737 6.26567 0.0295504 
837 1 1 37.1816 11.385 6.88619 
838 1 1 37.1659 11.5968 5.90858 
839 1 1 38.1726 8.69263 8.60865 
840 1 1 38.6482 7.81396 8.73568 
841 1 1 37.3001 10.5775 7.18373 
842 1 1 37.4332 9.64446 7.58157 
843 1 1 37.6604 8.78072 7.75667 
844 1 1 37.3747 11.6874 4.88125 
845 1 1 37.6171 11.825 3.98957 
846 1 1 38.0179 11.8926 3.09403 
847 1 1 41.3834 11.3737 62.0014 
848 1 1 42.05 9.94726 60.9886 
849 1 1 41.3923 10.5642 61.3052 
850 1 1 40.6356 11.9665 0.398157 
851 1 1 39.7976 12.1736 1.02515 
852 1 1 38.4834 11.9211 2.18888 
853 1 1 38.9096 11.8186 1.44793 
854 1 1 44.4107 3.93728 6.21187 
855 1 1 39.2715 6.98286 8.7673 
856 1 1 39.8922 6.23891 8.68964 
857 1 1 42.66 4.00766 7.31772 
858 1 1 40.6044 5.59359 8.4361 
859 1 1 42.0276 4.50773 7.7963 
860 1 1 41.3203 5.04954 8.12698 
861 1 1 43.4179 3.60409 6.72746 
862 1 1 42.6169 3.36718 6.79468 
863 1 1 44.4253 3.42693 5.32491 
864 1 1 44.632 3.03044 4.43031 
865 1 1 44.7534 2.76302 3.62053 
866 1 1 44.7665 2.58798 2.85912 
867 1 1 44.8152 4.66322 0.383459 
868 1 1 44.7557 2.80146 2.09135 
869 1 1 44.7701 3.09421 1.09455 
870 1 1 44.6711 3.60239 62.0491 
871 1 1 42.0315 9.25707 60.4582 
872 1 1 42.4908 8.46965 60.174 
873 1 1 42.9687 7.661 59.8302 
874 1 1 43.606 7.16226 60.1573 
875 1 1 44.1617 6.65039 60.5171 
876 1 1 44.796 5.35788 61.6978 
877 1 1 44.6228 6.03733 61.0182 
878 1 1 37.0171 10.6428 6.24956 
879 1 1 37.0692 10.8512 5.25302 
880 1 1 37.9989 7.92909 7.87754 
881 1 1 38.5577 7.1164 8.08611 
882 1 1 37.0906 9.71619 6.55531 
883 1 1 37.2151 8.79896 6.87942 
884 1 1 37.4496 8.04279 7.09662 
885 1 1 37.202 10.9838 4.3053 
886 1 1 37.451 11.0534 3.38234 
887 1 1 37.8463 11.2147 2.41071 
888 1 1 40.5316 11.0635 61.6336 
889 1 1 40.6902 10.2963 60.9623 
890 1 1 41.2462 9.70893 60.4675 
891 1 1 39.9399 11.5017 0.169121 
892 1 1 39.326 11.6052 0.748556 
893 1 1 38.2761 11.2697 1.60363 
894 1 1 38.6857 11.2023 0.9473 
895 1 1 43.7761 3.08236 5.94104 
896 1 1 39.0941 6.2653 8.12154 
897 1 1 39.7333 5.49901 7.99496 
898 1 1 41.7811 3.6909 7.06911 
899 1 1 40.3862 4.84008 7.73677 
900 1 1 41.0681 4.24387 7.46882 
901 1 1 43.0133 2.89218 6.27986 
902 1 1 42.1215 2.82854 6.42532 
903 1 1 44.0385 2.6987 5.12572 
904 1 1 44.3435 2.24781 4.33414 
905 1 1 44.4056 1.85437 3.24695 
906 1 1 44.521 2.03597 2.31486 
907 1 1 44.6264 4.44972 61.3199 
908 1 1 44.5476 2.27539 1.35944 
909 1 1 44.4274 2.54304 0.382558 
910 1 1 44.3648 2.89491 61.612 
911 1 1 44.3828 3.52438 61.037 
912 1 1 41.5541 8.87945 59.9078 
913 1 1 41.7382 8.25481 59.5361 
914 1 1 42.2768 7.69478 59.4138 
915 1 1 42.8864 7.02575 59.4154 
916 1 1 43.5339 6.40851 59.7201 
917 1 1 44.0598 5.73982 59.9547 