ITEM: TIMESTEP
100000000
ITEM: NUMBER OF ATOMS
94148
ITEM: BOX BOUNDS pp pp pp
0 62
0 62
0 62
ITEM: ATOMS id mol type x y z 
1 1 1 44.0801 23.3362 14.9457 
2 1 1 44.712 22.7928 14.6498 
3 1 1 44.4539 23.5796 14.0926 
4 1 1 45.1193 22.9169 13.8231 
5 1 1 43.7538 24.1496 14.3891 
6 1 1 44.7606 23.7389 13.2286 
7 1 1 45.3201 23.0551 12.8097 
8 1 1 44.09 22.6585 15.3978 
9 1 1 44.7756 21.9264 15.2014 
10 1 1 45.2191 22.0577 14.4091 
11 1 1 45.5506 22.249 13.5623 
12 1 1 45.8876 22.1412 12.7701 
13 1 1 43.3815 23.2651 15.5617 
14 1 1 43.4604 23.8369 15.0334 
15 1 1 42.9363 24.3506 14.7315 
16 1 1 44.0487 24.2535 13.4956 
17 1 1 43.2439 24.6994 13.841 
18 1 1 45.8276 22.616 12.1441 
19 1 1 45.4535 23.2502 11.8601 
20 1 1 44.9227 23.8508 12.2393 
21 1 1 44.3315 24.3989 12.6216 
22 1 1 42.7955 22.9729 16.0141 
23 1 1 43.5577 22.3472 16.0005 
24 1 1 44.1638 21.6716 15.777 
25 1 1 44.5842 21.039 15.5993 
26 1 1 45.2286 21.145 14.9007 
27 1 1 45.6563 21.2727 14.0471 
28 1 1 46.1946 21.9272 11.9567 
29 1 1 46.0156 21.3322 13.2393 
30 1 1 46.3318 21.2335 12.3727 
31 1 1 42.5422 23.7962 15.5354 
32 1 1 42.1587 24.426 14.8493 
33 1 1 42.3457 24.7264 14.0826 
34 1 1 43.4209 24.8036 12.9208 
35 1 1 42.4983 24.896 13.2768 
36 1 1 45.905 22.5356 11.3742 
37 1 1 45.4989 23.1699 10.9635 
38 1 1 46.1959 21.816 11.0572 
39 1 1 45.0077 23.8367 11.2647 
40 1 1 44.3854 24.3381 11.5768 
41 1 1 43.5737 24.8045 11.9317 
42 1 1 42.0286 22.9976 16.1968 
43 1 1 42.2388 22.3422 16.5588 
44 1 1 42.871 21.896 16.4076 
45 1 1 43.5211 21.478 16.2104 
46 1 1 43.789 20.725 16.1642 
47 1 1 44.2038 20.0282 15.9268 
48 1 1 44.9824 20.3041 15.3152 
49 1 1 45.5852 20.3847 14.4112 
50 1 1 46.0896 20.4012 13.6358 
51 1 1 46.4541 21.1254 11.5177 
52 1 1 46.3307 20.486 12.8424 
53 1 1 46.5148 20.5377 12.0358 
54 1 1 41.6426 23.5611 15.8765 
55 1 1 40.9864 22.8323 16.3566 
56 1 1 41.5744 24.1344 15.3343 
57 1 1 41.3933 24.4967 14.5631 
58 1 1 40.7649 23.833 15.6258 
59 1 1 41.5479 24.6986 13.6772 
60 1 1 42.6057 24.9365 12.3089 
61 1 1 41.6648 24.8355 12.8028 
62 1 1 44.9688 23.5968 10.5144 
63 1 1 45.8217 22.4148 10.5652 
64 1 1 45.2889 22.9589 10.1096 
65 1 1 46.4246 20.9624 10.7183 
66 1 1 46.0883 21.6038 10.2289 
67 1 1 44.4489 24.1172 10.699 
68 1 1 43.5827 24.6135 10.9923 
69 1 1 42.7311 24.8383 11.4432 
70 1 1 41.5115 22.2548 16.6883 
71 1 1 42.0152 21.5706 16.8453 
72 1 1 42.8391 20.7775 16.5911 
73 1 1 43.3217 19.9309 16.4749 
74 1 1 43.8432 19.2982 16.1045 
75 1 1 44.7084 19.3561 15.4225 
76 1 1 45.3689 19.5325 14.804 
77 1 1 45.9087 19.5609 13.9607 
78 1 1 46.2753 19.6415 13.1623 
79 1 1 46.5465 20.2375 11.317 
80 1 1 46.4627 19.6189 12.214 
81 1 1 46.4439 20.0022 10.5484 
82 1 1 40.6204 21.9592 16.6627 
83 1 1 40.3813 23.2957 16.0324 
84 1 1 40.2312 22.553 16.4096 
85 1 1 40.5493 24.138 14.9762 
86 1 1 40.5855 24.4714 14.0307 
87 1 1 39.9859 23.7067 15.362 
88 1 1 40.6662 24.6812 13.1198 
89 1 1 41.7359 24.8077 11.8243 
90 1 1 40.7954 24.7107 12.2809 
91 1 1 44.4489 23.5428 9.78681 
92 1 1 45.5469 22.2295 9.70307 
93 1 1 44.8548 22.7049 9.32782 
94 1 1 46.2247 20.66 9.90234 
95 1 1 45.7753 21.3759 9.37532 
96 1 1 43.7138 24.1792 10.1251 
97 1 1 42.7978 24.5766 10.4684 
98 1 1 41.8111 24.7045 10.8962 
99 1 1 41.1778 21.3483 16.9129 
100 1 1 41.7379 20.6188 16.9917 
101 1 1 42.2947 19.8408 16.8983 
102 1 1 42.8804 19.1135 16.6014 
103 1 1 44.2153 18.7503 15.689 
104 1 1 43.5363 18.5119 16.0812 
105 1 1 44.817 18.4785 15.0213 
106 1 1 45.5487 18.8184 14.2194 
107 1 1 45.9393 18.8586 13.3884 
108 1 1 46.1743 18.9435 12.6864 
109 1 1 46.2389 19.6836 9.64886 
110 1 1 46.4638 19.296 11.2669 
111 1 1 46.2245 18.6122 11.9664 
112 1 1 46.3168 19.0744 10.3016 
113 1 1 39.6345 22.0066 16.4722 
114 1 1 40.1892 21.2382 16.7379 
115 1 1 39.3948 22.8379 15.9163 
116 1 1 38.8152 22.0034 15.9819 
117 1 1 39.6983 23.9917 14.5886 
118 1 1 39.7002 24.2915 13.6714 
119 1 1 39.0348 23.4327 15.0654 
120 1 1 39.8862 24.4532 12.6203 
121 1 1 40.9136 24.6725 11.359 
122 1 1 40.008 24.5252 11.8095 
123 1 1 43.6133 23.6508 9.29439 
124 1 1 44.1006 23.031 9.07586 
125 1 1 45.1612 21.9696 8.90301 
126 1 1 44.3706 22.4084 8.70304 
127 1 1 45.9319 20.4095 9.09799 
128 1 1 45.4604 20.9689 8.57787 
129 1 1 45.9903 19.5644 8.87234 
130 1 1 40.9513 24.6411 10.4436 
131 1 1 42.9188 24.134 9.55847 
132 1 1 41.7298 24.558 9.8823 
133 1 1 40.6676 20.4621 16.947 
134 1 1 41.307 19.8122 17.0216 
135 1 1 42.8732 18.2946 16.4269 
136 1 1 41.8793 19.0542 16.934 
137 1 1 42.1273 18.2803 16.7154 
138 1 1 43.9688 17.968 15.5439 
139 1 1 43.2109 17.7585 16.0156 
140 1 1 44.4049 17.5149 14.8156 
141 1 1 45.0805 17.9089 14.2028 
142 1 1 45.5681 18.2108 13.7068 
143 1 1 45.7859 18.0766 12.712 
144 1 1 46.1973 18.7543 9.47772 
145 1 1 46.2661 18.4823 11.0916 
146 1 1 46.0424 17.9739 11.6743 
147 1 1 46.2149 18.1785 10.2414 
148 1 1 39.1407 21.287 16.4823 
149 1 1 39.6528 20.4726 16.7367 
150 1 1 38.4369 22.6329 15.3153 
151 1 1 38.3959 21.1543 16.0743 
152 1 1 37.9464 21.7835 15.4488 
153 1 1 38.9164 23.7882 14.1101 
154 1 1 39.0485 24.0429 13.1356 
155 1 1 38.3078 23.1767 14.4886 
156 1 1 39.1861 24.1506 12.0701 
157 1 1 40.1507 24.5392 10.9088 
158 1 1 39.4425 24.273 11.3092 
159 1 1 42.9418 23.5438 8.91061 
160 1 1 43.4327 22.8915 8.56072 
161 1 1 43.8663 22.1145 8.1432 
162 1 1 44.6289 21.526 8.14924 
163 1 1 45.5686 20.1256 8.28845 
164 1 1 45.0636 20.6843 7.93028 
165 1 1 45.874 18.6678 8.62043 
166 1 1 45.7058 19.3661 8.1816 
167 1 1 40.8545 24.417 9.68981 
168 1 1 40.1249 24.4061 10.1094 
169 1 1 42.1425 23.8878 9.01482 
170 1 1 41.2336 24.0178 9.07285 
171 1 1 40.197 19.5663 16.9165 
172 1 1 40.8057 18.9328 16.9299 
173 1 1 42.4588 17.6315 16.3334 
174 1 1 41.2463 18.1983 16.8518 
175 1 1 41.6846 17.5688 16.5694 
176 1 1 42.6879 17.0445 15.8335 
177 1 1 43.5687 17.2591 15.3202 
178 1 1 43.8547 16.8467 14.6181 
179 1 1 44.6579 17.1367 13.9907 
180 1 1 45.2835 17.5166 13.3945 
181 1 1 45.3462 17.1713 12.6975 
182 1 1 45.6708 17.2792 11.9988 
183 1 1 45.9816 17.8391 9.22462 
184 1 1 45.736 17.8901 8.35634 
185 1 1 46.0489 17.4723 10.9748 
186 1 1 46.0313 17.4115 10.0036 
187 1 1 38.8704 20.3025 16.4696 
188 1 1 39.2779 19.4615 16.6813 
189 1 1 37.8198 22.4148 14.648 
190 1 1 37.3316 21.7785 14.5298 
191 1 1 38.2168 20.2869 16.0215 
192 1 1 37.7853 20.7834 15.6514 
193 1 1 37.386 21.2191 15.1113 
194 1 1 38.2463 23.5686 13.4253 
195 1 1 38.3357 23.7874 12.3667 
196 1 1 37.6869 22.9725 13.6743 
197 1 1 38.6556 23.8702 11.2982 
198 1 1 39.3165 24.144 10.4888 
199 1 1 42.3658 23.2607 8.45185 
200 1 1 42.627 22.638 8.05958 
201 1 1 43.1955 22.1335 7.84268 
202 1 1 43.8244 21.524 7.53222 
203 1 1 44.382 20.7694 7.33115 
204 1 1 45.0854 19.8656 7.40684 
205 1 1 45.4957 18.7269 7.61529 
206 1 1 40.3138 24.0001 9.25224 
207 1 1 39.4561 23.9218 9.60059 
208 1 1 41.4783 23.3724 8.46538 
209 1 1 40.54 23.4739 8.64316 
210 1 1 39.9001 18.6798 16.7311 
211 1 1 40.3972 18.0175 16.6995 
212 1 1 41.8936 16.9287 16.1261 
213 1 1 40.9115 17.1699 16.3817 
214 1 1 42.1507 16.3814 15.5368 
215 1 1 43.0214 16.5443 15.1998 
216 1 1 45.4652 17.6986 7.60968 
217 1 1 45.6512 17.123 8.53272 
218 1 1 43.2117 16.1112 14.4833 
219 1 1 44.0033 16.3726 13.9159 
220 1 1 44.7783 16.6535 13.1016 
221 1 1 45.2131 16.536 12.1395 
222 1 1 45.6091 16.6097 11.3023 
223 1 1 45.759 16.8625 9.38511 
224 1 1 45.7273 16.6874 10.2539 
225 1 1 38.9945 18.4743 16.406 
226 1 1 38.4365 19.3658 16.1756 
227 1 1 37.2273 22.2007 13.7649 
228 1 1 36.8648 21.4454 13.9494 
229 1 1 36.9503 20.9805 14.4987 
230 1 1 37.7086 19.8476 15.5476 
231 1 1 37.2112 20.4352 15.0721 
232 1 1 37.6291 23.1546 12.6743 
233 1 1 37.7355 23.2435 11.7608 
234 1 1 37.1199 22.4889 12.8632 
235 1 1 37.9474 23.2105 10.8515 
236 1 1 38.6492 23.6728 10.2385 
237 1 1 41.848 22.7413 8.00755 
238 1 1 42.2374 21.9906 7.53135 
239 1 1 42.9561 21.4328 7.16039 
240 1 1 43.6419 20.7557 6.84676 
241 1 1 44.3197 20.0137 6.76502 
242 1 1 44.8545 19.0895 6.76916 
243 1 1 45.087 18.1873 6.76174 
244 1 1 39.6117 23.4846 8.90133 
245 1 1 38.6965 23.3178 9.42076 
246 1 1 40.8641 22.8159 8.04503 
247 1 1 39.876 22.8845 8.26577 
248 1 1 39.5967 17.9248 16.4087 
249 1 1 39.9902 17.2718 16.2096 
250 1 1 41.1913 16.3935 15.8182 
251 1 1 40.3546 16.6775 15.9035 
252 1 1 41.5165 15.8356 15.0699 
253 1 1 42.4301 15.8743 14.7634 
254 1 1 45.2129 17.0816 6.98599 
255 1 1 45.4229 16.6703 7.86235 
256 1 1 45.4415 16.1891 8.8192 
257 1 1 42.6436 15.5269 14.0651 
258 1 1 43.4374 15.7231 13.6516 
259 1 1 44.0901 15.9434 13.2108 
260 1 1 44.5367 15.835 12.3819 
261 1 1 44.9556 15.8101 11.5722 
262 1 1 45.3235 15.9129 10.7105 
263 1 1 45.4485 16.0024 9.75245 
264 1 1 38.9029 17.7356 16.0207 
265 1 1 38.3097 18.3567 15.8412 
266 1 1 37.6657 18.9628 15.417 
267 1 1 36.675 21.6396 12.9986 
268 1 1 36.5059 20.8162 13.6555 
269 1 1 36.704 20.2009 14.2649 
270 1 1 37.1468 19.6056 14.889 
271 1 1 37.1989 22.6025 12.0107 
272 1 1 37.4046 22.7434 11.2902 
273 1 1 36.8031 21.9915 12.2268 
274 1 1 37.4561 22.5254 10.5616 
275 1 1 38.0391 22.9475 9.97563 
276 1 1 41.197 22.1334 7.49943 
277 1 1 41.3854 21.5694 7.0633 
278 1 1 42.0463 21.1565 6.76387 
279 1 1 42.6817 20.6795 6.51069 
280 1 1 43.5042 20.0371 6.23362 
281 1 1 44.1207 19.2654 6.18331 
282 1 1 44.5542 18.3375 6.03071 
283 1 1 44.8408 17.2781 6.1777 
284 1 1 39.0587 22.8812 8.68029 
285 1 1 38.2531 22.5267 9.01398 
286 1 1 40.3157 22.2647 7.62176 
287 1 1 39.2754 22.3445 7.91052 
288 1 1 39.2757 17.0429 15.7703 
289 1 1 40.6138 15.9998 15.3838 
290 1 1 39.8436 16.2797 15.4533 
291 1 1 44.8953 16.3436 6.2715 
292 1 1 40.8221 15.3421 14.6669 
293 1 1 41.7179 15.3492 14.388 
294 1 1 45.0431 16.0748 7.16368 
295 1 1 45.1432 15.7224 8.08362 
296 1 1 45.1062 15.4306 9.06913 
297 1 1 42.1749 14.9307 13.5953 
298 1 1 42.9455 15.1972 13.3737 
299 1 1 43.6154 15.2634 12.7083 
300 1 1 44.2268 15.0958 11.853 
301 1 1 44.6961 15.1164 11.0151 
302 1 1 44.9855 15.2549 10.0243 
303 1 1 37.145 18.6624 14.6661 
304 1 1 38.3821 17.5081 15.4706 
305 1 1 37.6423 18.0619 15.0642 
306 1 1 36.5147 21.2852 12.0779 
307 1 1 36.2942 20.7292 12.8489 
308 1 1 36.3757 19.9462 13.5052 
309 1 1 36.6902 19.32 14.1339 
310 1 1 36.877 21.9396 11.3265 
311 1 1 37.0715 21.8721 10.3156 
312 1 1 37.5343 22.1384 9.60522 
313 1 1 40.4764 21.5569 7.02186 
314 1 1 41.1173 21.004 6.50547 
315 1 1 41.826 20.4609 6.1297 
316 1 1 42.554 19.9479 5.94007 
317 1 1 43.2687 19.3358 5.63569 
318 1 1 43.8461 18.5615 5.45618 
319 1 1 44.2643 17.5632 5.38642 
320 1 1 44.4971 16.5404 5.50193 
321 1 1 38.5236 22.1833 8.30486 
322 1 1 37.861 21.8622 8.64269 
323 1 1 39.5492 21.7863 7.30858 
324 1 1 38.7824 21.7695 7.63278 
325 1 1 38.4705 16.8058 15.0125 
326 1 1 39.0716 16.3094 15.0661 
327 1 1 39.8253 15.5815 14.8559 
328 1 1 40.2925 14.9072 14.2127 
329 1 1 44.6232 15.6198 5.7223 
330 1 1 44.8331 15.2971 6.52082 
331 1 1 41.1749 14.7577 13.875 
332 1 1 44.8315 15.0651 7.44715 
333 1 1 44.7973 14.8746 8.3983 
334 1 1 44.6481 14.6302 9.36795 
335 1 1 41.6202 14.4226 13.2382 
336 1 1 42.5686 14.5063 12.6836 
337 1 1 43.3531 14.4249 11.9277 
338 1 1 43.9688 14.4034 11.1901 
339 1 1 44.466 14.4487 10.3576 
340 1 1 36.431 21.0923 11.3079 
341 1 1 36.6358 18.4713 13.7497 
342 1 1 37.1005 17.8328 14.2148 
343 1 1 37.7755 17.1188 14.6091 
344 1 1 36.1562 20.571 11.8766 
345 1 1 36.1339 19.8689 12.5723 
346 1 1 36.2936 19.118 13.178 
347 1 1 36.2909 18.2783 12.8942 
348 1 1 36.63 21.2276 10.4887 
349 1 1 36.9214 21.3177 9.70382 
350 1 1 37.2807 21.2449 8.6884 
351 1 1 39.6554 21.2206 6.74545 
352 1 1 40.2609 20.8298 6.35236 
353 1 1 40.8425 20.3237 5.8752 
354 1 1 41.5433 19.801 5.56022 
355 1 1 42.3713 19.2855 5.27923 
356 1 1 42.973 18.6555 4.96237 
357 1 1 43.5457 17.924 4.79839 
358 1 1 43.9769 16.8362 4.84654 
359 1 1 44.296 15.7823 4.87285 
360 1 1 37.936 21.2736 7.82101 
361 1 1 38.6935 21.1694 7.00224 
362 1 1 38.3543 16.2314 14.4297 
363 1 1 38.9137 15.5994 14.373 
364 1 1 39.4916 14.8823 14.0374 
365 1 1 40.2911 14.409 13.6472 
366 1 1 44.4184 14.7386 5.10963 
367 1 1 44.5594 14.4998 5.96663 
368 1 1 44.5684 14.3298 6.87604 
369 1 1 40.9211 13.9621 13.1146 
370 1 1 44.5233 14.1121 7.785 
371 1 1 44.3918 13.9152 8.74806 
372 1 1 44.208 13.7588 9.70953 
373 1 1 41.6713 13.9206 12.601 
374 1 1 42.4251 13.7599 12.0372 
375 1 1 43.1077 13.7262 11.3797 
376 1 1 43.7072 13.6205 10.577 
377 1 1 36.1578 20.3641 10.8924 
378 1 1 36.6252 17.6672 13.4173 
379 1 1 37.0872 17.1337 13.8196 
380 1 1 37.5347 16.3594 13.8265 
381 1 1 35.9904 19.6822 11.6068 
382 1 1 36.0822 18.9572 12.3275 
383 1 1 35.9932 18.0632 12.0446 
384 1 1 36.2581 17.5389 12.6272 
385 1 1 36.4106 20.5336 9.86734 
386 1 1 36.7317 20.5513 8.93623 
387 1 1 37.1914 20.5431 7.99257 
388 1 1 39.3309 20.6416 6.25474 
389 1 1 39.8793 20.1922 5.73465 
390 1 1 40.6225 19.6728 5.23247 
391 1 1 41.3828 19.1253 4.84145 
392 1 1 42.1406 18.5787 4.52914 
393 1 1 42.7443 17.8838 4.28938 
394 1 1 43.2973 17.0836 4.16406 
395 1 1 43.778 16.0717 4.25034 
396 1 1 44.0795 14.9726 4.28373 
397 1 1 37.7104 20.5035 7.05303 
398 1 1 38.4417 20.4335 6.36191 
399 1 1 38.0181 15.5924 13.7618 
400 1 1 38.6671 14.9175 13.6264 
401 1 1 39.3738 14.2289 13.3804 
402 1 1 44.1911 13.9055 4.45963 
403 1 1 40.0826 13.7089 12.9265 
404 1 1 44.393 13.7189 5.33891 
405 1 1 44.4241 13.5034 6.26392 
406 1 1 44.3391 13.3885 7.207 
407 1 1 40.8573 13.3348 12.4627 
408 1 1 44.1668 13.1726 8.12379 
409 1 1 43.9444 13.0317 8.99218 
410 1 1 43.5411 12.9561 9.88371 
411 1 1 41.5516 13.1647 11.8957 
412 1 1 42.3049 13.0323 11.3206 
413 1 1 42.9217 13.0295 10.6495 
414 1 1 35.8295 19.3473 10.9118 
415 1 1 35.9265 19.5734 10.1225 
416 1 1 36.7132 16.7347 13.0032 
417 1 1 37.2011 15.7623 13.0863 
418 1 1 35.7899 18.6886 11.392 
419 1 1 35.736 17.6576 11.3578 
420 1 1 36.0404 16.9376 11.9685 
421 1 1 36.2264 19.7618 9.28299 
422 1 1 36.5766 19.8515 8.32559 
423 1 1 37.0489 19.8632 7.35635 
424 1 1 38.9937 19.9921 5.61354 
425 1 1 39.6105 19.5171 5.01942 
426 1 1 40.5025 19.0048 4.5106 
427 1 1 41.2145 18.4549 4.11256 
428 1 1 41.911 17.85 3.80579 
429 1 1 43.8758 14.2576 3.64534 
430 1 1 42.5055 17.1407 3.70013 
431 1 1 43.0725 16.3011 3.59706 
432 1 1 43.5513 15.3475 3.67714 
433 1 1 37.5137 19.7995 6.48025 
434 1 1 38.1756 19.6974 5.68425 
435 1 1 37.7958 14.9796 13.0818 
436 1 1 38.4699 14.2436 13.003 
437 1 1 39.1342 13.6057 12.6795 
438 1 1 44.0329 13.2742 3.76829 
439 1 1 44.2022 12.9231 4.70095 
440 1 1 39.839 13.0688 12.2902 
441 1 1 44.2785 12.6806 5.5464 
442 1 1 44.2023 12.5893 6.4642 
443 1 1 43.9421 12.3223 7.41504 
444 1 1 40.5732 12.6958 11.8833 
445 1 1 43.7441 12.3286 8.34616 
446 1 1 43.2819 12.2544 9.29718 
447 1 1 42.6615 12.2793 10.0311 
448 1 1 41.3041 12.4818 11.3093 
449 1 1 42.0621 12.3769 10.682 
450 1 1 35.6671 18.71 10.4649 
451 1 1 35.7932 18.9179 9.51584 
452 1 1 36.4648 15.9975 12.2257 
453 1 1 36.9919 15.1192 12.4799 
454 1 1 35.543 17.8089 10.6285 
455 1 1 35.6124 16.8559 11.0358 
456 1 1 35.934 16.0556 11.3655 
457 1 1 36.0029 19.0887 8.60172 
458 1 1 36.3638 19.1698 7.61936 
459 1 1 36.8157 19.1527 6.67145 
460 1 1 38.7435 19.2921 4.93126 
461 1 1 39.5426 18.8618 4.31998 
462 1 1 40.2066 18.3354 3.84402 
463 1 1 40.96 17.8093 3.42688 
464 1 1 41.7003 17.0897 3.21684 
465 1 1 43.6615 13.5662 2.9185 
466 1 1 43.3259 14.5697 2.93875 
467 1 1 42.3217 16.2734 3.07964 
468 1 1 42.9034 15.5008 2.99137 
469 1 1 37.3799 19.1245 5.77368 
470 1 1 37.9052 18.8764 5.01766 
471 1 1 37.5213 14.2813 12.4146 
472 1 1 38.165 13.5275 12.266 
473 1 1 38.9507 12.9017 12.0264 
474 1 1 43.7685 12.5825 3.1195 
475 1 1 44.0075 12.2294 4.04282 
476 1 1 44.0673 11.8847 4.92365 
477 1 1 39.5811 12.4187 11.6299 
478 1 1 44.0717 11.7652 5.82001 
479 1 1 43.8796 11.5599 6.73501 
480 1 1 43.5901 11.4868 7.66867 
481 1 1 40.3725 11.9783 11.2397 
482 1 1 43.2424 11.5686 8.66909 
483 1 1 42.5195 11.5017 9.37701 
484 1 1 41.8367 11.6165 10.061 
485 1 1 41.1387 11.7279 10.707 
486 1 1 35.4786 18.0455 9.75358 
487 1 1 35.5902 18.1803 8.85289 
488 1 1 36.3021 15.2013 11.6648 
489 1 1 36.7595 14.3705 11.7968 
490 1 1 35.3554 17.1126 10.0812 
491 1 1 35.4452 16.2214 10.3981 
492 1 1 35.7924 15.3704 10.7122 
493 1 1 35.8087 18.4239 7.94532 
494 1 1 36.2024 18.5376 6.99473 
495 1 1 36.5656 18.4868 6.06339 
496 1 1 43.415 12.7919 2.22172 
497 1 1 38.6335 18.6035 4.31817 
498 1 1 39.2787 18.1373 3.59903 
499 1 1 40.0873 17.6582 3.15301 
500 1 1 40.7813 17.0805 2.83798 
501 1 1 41.512 16.3435 2.51611 
502 1 1 43.1903 13.823 2.24251 
503 1 1 42.668 14.8191 2.30157 
504 1 1 42.1384 15.5838 2.42726 
505 1 1 37.0824 18.3282 5.18374 
506 1 1 37.6896 18.1791 4.38854 
507 1 1 43.615 11.7938 2.48834 
508 1 1 37.3308 13.5605 11.765 
509 1 1 38.0401 12.8819 11.6818 
510 1 1 38.6869 12.246 11.3093 
511 1 1 43.8036 11.5346 3.35054 
512 1 1 43.9173 11.159 4.2362 
513 1 1 43.8619 10.9485 5.15928 
514 1 1 39.4476 11.6436 10.9161 
515 1 1 43.7842 10.8887 6.12444 
516 1 1 43.4622 10.6751 7.03516 
517 1 1 43.0452 10.805 8.03009 
518 1 1 40.3489 11.2502 10.5717 
519 1 1 42.4746 10.7441 8.7333 
520 1 1 41.7632 10.8445 9.42779 
521 1 1 41.0599 10.9893 10.0382 
522 1 1 35.2911 17.2925 9.07616 
523 1 1 35.4262 17.5511 8.06211 
524 1 1 36.1951 14.511 10.8998 
525 1 1 36.6901 13.6529 11.0631 
526 1 1 35.2582 16.3124 9.47436 
527 1 1 35.3688 15.4402 9.67129 
528 1 1 35.6847 14.6486 9.94949 
529 1 1 35.6212 17.7733 7.13828 
530 1 1 35.9199 17.8493 6.25707 
531 1 1 36.3886 17.7131 5.41164 
532 1 1 43.2341 11.9941 1.57978 
533 1 1 42.9502 13.0408 1.55081 
534 1 1 38.384 17.9218 3.59569 
535 1 1 39.1035 17.5567 2.86908 
536 1 1 39.8769 17.0857 2.40536 
537 1 1 40.65 16.388 2.07839 
538 1 1 41.2726 15.6146 1.87032 
539 1 1 42.4932 14.0969 1.62349 
540 1 1 41.9171 14.877 1.72103 
541 1 1 36.9552 17.6047 4.46072 
542 1 1 37.5573 17.4616 3.65565 
543 1 1 43.4583 11.0554 1.81055 
544 1 1 43.684 10.7418 2.64253 
545 1 1 37.2429 12.8292 11.0642 
546 1 1 37.8078 12.1591 10.8857 
547 1 1 38.5906 11.4874 10.656 
548 1 1 43.782 10.5126 3.49387 
549 1 1 43.7513 10.1848 4.49102 
550 1 1 43.627 10.1181 5.43629 
551 1 1 39.3697 10.9262 10.2864 
552 1 1 43.4063 10.0068 6.3549 
553 1 1 42.9937 9.89785 7.28871 
554 1 1 42.383 9.9856 8.06001 
555 1 1 40.189 10.5561 9.91317 
556 1 1 41.7215 10.0881 8.70572 
557 1 1 40.9896 10.3058 9.29129 
558 1 1 35.2259 16.6156 8.38626 
559 1 1 35.266 16.8524 7.36639 
560 1 1 36.1358 13.9116 10.163 
561 1 1 36.5794 13.0036 10.3133 
562 1 1 35.1977 15.731 8.71469 
563 1 1 35.3466 14.7996 8.91683 
564 1 1 35.6223 13.9694 9.13344 
565 1 1 35.4489 17.0707 6.4509 
566 1 1 35.7657 17.0693 5.54162 
567 1 1 36.2017 17.0335 4.61918 
568 1 1 43.0641 11.3702 0.928176 
569 1 1 42.7938 12.3243 0.911077 
570 1 1 42.2747 13.3757 0.951027 
571 1 1 38.2214 17.3074 2.93901 
572 1 1 38.944 16.9105 2.2219 
573 1 1 39.8101 16.373 1.75066 
574 1 1 40.4356 15.747 1.41249 
575 1 1 41.0614 14.9546 1.19782 
576 1 1 41.7117 14.2068 1.01442 
577 1 1 36.7821 16.9938 3.70021 
578 1 1 37.3937 16.8472 2.92626 
579 1 1 43.2866 10.4006 1.09675 
580 1 1 43.5746 10.0221 1.97822 
581 1 1 43.6825 9.70087 2.8853 
582 1 1 37.1527 12.1908 10.1763 
583 1 1 37.7972 11.4406 10.1445 
584 1 1 38.49 10.7406 9.88817 
585 1 1 43.6475 9.50813 3.80644 
586 1 1 43.49 9.26455 4.76164 
587 1 1 43.2587 9.23907 5.70847 
588 1 1 39.2097 10.2376 9.51827 
589 1 1 42.8637 9.19991 6.62606 
590 1 1 42.1592 9.2063 7.43417 
591 1 1 41.4898 9.36357 8.08694 
592 1 1 40.009 9.93572 9.12774 
593 1 1 40.7813 9.54529 8.61329 
594 1 1 35.0957 16.0014 7.62977 
595 1 1 35.1075 16.1659 6.62017 
596 1 1 36.0207 13.2277 9.35121 
597 1 1 36.4579 12.4647 9.54754 
598 1 1 35.1312 15.0869 7.93824 
599 1 1 35.2496 14.2371 8.10547 
600 1 1 35.496 13.4046 8.33279 
601 1 1 35.3258 16.2725 5.69747 
602 1 1 35.5885 16.3555 4.76751 
603 1 1 36.0231 16.3796 3.86204 
604 1 1 42.8475 10.6471 0.339064 
605 1 1 42.9312 9.64186 0.46244 
606 1 1 42.6066 10.0146 61.608 
607 1 1 42.568 11.6923 0.193321 
608 1 1 42.1407 12.7119 0.247866 
609 1 1 41.5559 13.5934 0.316017 
610 1 1 38.0224 16.6324 2.24001 
611 1 1 38.8307 16.2012 1.52634 
612 1 1 39.4995 15.6845 1.04375 
613 1 1 40.2021 15.0458 0.73493 
614 1 1 40.866 14.3404 0.457612 
615 1 1 36.5801 16.3472 2.99655 
616 1 1 37.1888 16.1625 2.16666 
617 1 1 43.3383 9.32255 1.30423 
618 1 1 43.5975 8.95997 2.21164 
619 1 1 43.5376 8.73561 3.18272 
620 1 1 37.0024 11.6056 9.4565 
621 1 1 37.6349 10.8767 9.36684 
622 1 1 38.2346 10.0854 9.15038 
623 1 1 43.3636 8.56411 4.15475 
624 1 1 43.1054 8.39454 5.15213 
625 1 1 42.7062 8.42162 6.04068 
626 1 1 38.9396 9.58863 8.74753 
627 1 1 42.1486 8.48802 6.8769 
628 1 1 41.3771 8.54989 7.40666 
629 1 1 40.6492 8.84584 7.98038 
630 1 1 39.7717 9.15498 8.48467 
631 1 1 42.9488 8.62739 0.586128 
632 1 1 42.6113 8.88585 61.691 
633 1 1 34.9547 15.2958 6.88281 
634 1 1 34.973 15.3827 5.90975 
635 1 1 35.8843 12.6396 8.56663 
636 1 1 36.3369 11.7782 8.70332 
637 1 1 34.9902 14.4103 7.1243 
638 1 1 35.1242 13.5193 7.33677 
639 1 1 35.3554 12.7127 7.60492 
640 1 1 35.1388 15.5811 4.99674 
641 1 1 35.4443 15.6616 4.05691 
642 1 1 35.8471 15.6421 3.10712 
643 1 1 42.3314 10.9605 61.5366 
644 1 1 42.3195 9.57725 60.8879 
645 1 1 42.1715 10.4501 60.8527 
646 1 1 41.8887 12.0679 61.5207 
647 1 1 41.3534 12.9376 61.6013 
648 1 1 40.7963 13.7521 61.7914 
649 1 1 37.8434 15.94 1.4494 
650 1 1 38.5592 15.5375 0.753071 
651 1 1 39.3243 15.0149 0.248205 
652 1 1 40.0126 14.3533 61.9614 
653 1 1 36.4316 15.6328 2.21663 
654 1 1 37.0934 15.5048 1.42546 
655 1 1 43.2761 8.30889 1.48671 
656 1 1 43.3994 8.03432 2.46158 
657 1 1 43.2016 7.86408 3.49004 
658 1 1 36.861 10.9129 8.69972 
659 1 1 37.4479 10.1492 8.67238 
660 1 1 38.0329 9.41034 8.45706 
661 1 1 42.8883 7.70782 4.49587 
662 1 1 42.5665 7.6476 5.43335 
663 1 1 41.9172 7.63998 6.24836 
664 1 1 38.8035 8.81873 8.11081 
665 1 1 41.3039 7.80102 6.84798 
666 1 1 40.5137 8.0861 7.38783 
667 1 1 39.7287 8.41998 7.78393 
668 1 1 42.9559 7.56833 0.889575 
669 1 1 42.645 7.88232 0.0119015 
670 1 1 42.3213 8.76093 60.873 
671 1 1 42.0495 9.10823 60.2662 
672 1 1 42.4068 8.06971 61.2319 
673 1 1 34.7852 14.525 6.08513 
674 1 1 34.8007 14.7155 5.08129 
675 1 1 35.7936 11.8066 7.80084 
676 1 1 36.1652 10.9757 7.88191 
677 1 1 34.8397 13.663 6.3488 
678 1 1 35.0559 12.7719 6.61953 
679 1 1 35.2949 11.9369 6.92494 
680 1 1 35.0262 14.8425 4.18137 
681 1 1 35.295 14.9075 3.2179 
682 1 1 35.7322 14.9296 2.33392 
683 1 1 41.7086 11.4381 60.8967 
684 1 1 41.9041 9.84023 60.1381 
685 1 1 41.6202 10.7403 60.1139 
686 1 1 41.1995 12.3017 60.8529 
687 1 1 40.5941 12.9992 60.9285 
688 1 1 39.9025 13.6941 61.1957 
689 1 1 37.7142 15.2156 0.6305 
690 1 1 38.3684 14.8891 61.9482 
691 1 1 39.0964 14.3676 61.5132 
692 1 1 36.3262 14.9289 1.51014 
693 1 1 36.8804 14.7118 0.662164 
694 1 1 43.0905 7.29345 1.78181 
695 1 1 43.0856 7.1554 2.78159 
696 1 1 42.831 6.98383 3.7756 
697 1 1 36.7317 10.1364 8.01818 
698 1 1 37.2465 9.3605 7.96645 
699 1 1 37.9883 8.6938 7.69946 
700 1 1 42.4249 6.93065 4.73341 
701 1 1 41.8982 6.82137 5.58445 
702 1 1 41.1333 7.01316 6.22445 
703 1 1 38.8367 8.15421 7.43859 
704 1 1 40.4161 7.3032 6.67829 
705 1 1 39.5924 7.68168 7.07294 
706 1 1 42.7019 6.54621 1.32159 
707 1 1 42.573 6.80349 0.363588 
708 1 1 42.3542 7.02258 61.4508 
709 1 1 41.6983 9.09694 59.4663 
710 1 1 42.1092 8.24625 60.239 
711 1 1 42.2252 7.48216 60.6677 
712 1 1 34.6806 13.8357 5.29827 
713 1 1 34.7243 13.9165 4.43188 
714 1 1 35.6548 11.0809 7.05012 
715 1 1 36.124 10.2473 7.28227 
716 1 1 34.7373 12.8917 5.64859 
717 1 1 34.941 12.0026 5.89386 
718 1 1 35.1375 11.2027 6.14781 
719 1 1 34.8425 14.08 3.48715 
720 1 1 35.1492 14.0622 2.55223 
721 1 1 35.5637 14.1569 1.62816 
722 1 1 41.0962 11.5677 60.1517 
723 1 1 41.4161 10.063 59.3127 
724 1 1 41.0026 10.8713 59.4099 
725 1 1 40.4207 12.286 60.2188 
726 1 1 39.7062 12.9711 60.4742 
727 1 1 39.0201 13.6531 60.7841 
728 1 1 37.4711 14.5043 61.8759 
729 1 1 38.2359 14.182 61.2115 
730 1 1 36.0746 14.153 0.750167 
731 1 1 36.6844 14.0514 61.9473 
732 1 1 42.8455 6.43517 2.21977 
733 1 1 42.7362 6.29192 3.14053 
734 1 1 42.375 6.18477 4.10111 
735 1 1 36.5849 9.35212 7.30528 
736 1 1 37.2391 8.62555 7.2487 
737 1 1 37.9802 7.91972 7.02902 
738 1 1 41.8679 6.03233 4.90508 
739 1 1 41.1195 6.16216 5.55742 
740 1 1 40.3632 6.45133 5.9575 
741 1 1 38.7987 7.39183 6.75334 
742 1 1 39.5838 6.91262 6.41658 
743 1 1 42.4963 5.84227 0.678997 
744 1 1 42.5944 5.60911 1.57788 
745 1 1 42.3464 5.9686 61.8192 
746 1 1 42.3003 5.11142 61.9353 
747 1 1 41.2735 9.49484 58.7967 
748 1 1 42.1943 6.12389 61.0198 
749 1 1 41.4644 8.72625 58.5141 
750 1 1 42.1909 6.68331 60.4865 
751 1 1 41.7937 8.06918 59.2355 
752 1 1 42.0573 7.40411 59.9415 
753 1 1 34.6369 13.0178 4.62015 
754 1 1 34.6158 13.1734 3.70776 
755 1 1 35.5293 10.3475 6.39822 
756 1 1 36.0013 9.48338 6.56839 
757 1 1 34.6385 12.1047 4.94916 
758 1 1 34.823 11.2381 5.19579 
759 1 1 35.0642 10.3118 5.48248 
760 1 1 34.7636 13.2859 2.79688 
761 1 1 35.102 13.3363 1.85956 
762 1 1 35.4117 13.3879 0.888799 
763 1 1 40.3454 11.5389 59.448 
764 1 1 40.8355 10.1538 58.658 
765 1 1 40.2215 10.8805 58.7587 
766 1 1 39.6478 12.2823 59.7184 
767 1 1 38.8237 12.9698 60.0413 
768 1 1 38.0243 13.4904 60.5094 
769 1 1 37.2965 13.7805 61.1373 
770 1 1 35.9814 13.4474 61.9952 
771 1 1 36.5917 13.2725 61.15 
772 1 1 42.5633 5.52602 2.50865 
773 1 1 42.3077 5.45887 3.50928 
774 1 1 41.7573 5.37357 4.32555 
775 1 1 36.5319 8.59906 6.57075 
776 1 1 37.1829 7.83935 6.52442 
777 1 1 37.9624 7.18063 6.31708 
778 1 1 41.0421 5.36127 4.91412 
779 1 1 40.2701 5.59272 5.29152 
780 1 1 39.4477 6.12172 5.69688 
781 1 1 38.6629 6.59304 6.01954 
782 1 1 41.1383 4.75055 4.24166 
783 1 1 42.3449 4.89347 0.787807 
784 1 1 42.3594 4.79515 1.8082 
785 1 1 42.1516 5.24047 60.9403 
786 1 1 42.2463 4.24944 0.125701 
787 1 1 42.2265 4.42282 61.3639 
788 1 1 42.2086 4.27279 60.5867 
789 1 1 40.6791 9.40515 58.0037 
790 1 1 41.0935 8.47696 57.7193 
791 1 1 42.1094 5.85639 60.1629 
792 1 1 41.5992 7.8673 58.2554 
793 1 1 42.0422 6.58119 59.5587 
794 1 1 41.8742 7.21627 58.9156 
795 1 1 34.4582 12.2826 3.98125 
796 1 1 34.4985 12.4232 2.95938 
797 1 1 35.4067 9.52475 5.76046 
798 1 1 35.8788 8.65365 5.89569 
799 1 1 34.5411 11.3594 4.23618 
800 1 1 34.6456 10.47 4.6145 
801 1 1 34.8886 9.55322 4.84659 
802 1 1 34.6652 12.5093 2.01281 
803 1 1 34.9351 12.6268 1.10895 
804 1 1 35.3086 12.6762 0.208264 
805 1 1 39.461 11.5849 58.9573 
806 1 1 39.9702 10.1554 58.0456 
807 1 1 39.3804 10.773 58.2638 
808 1 1 38.774 12.1735 59.3438 
809 1 1 37.9401 12.6712 59.7444 
810 1 1 37.2175 13.0596 60.384 
811 1 1 35.8534 12.737 61.2766 
812 1 1 36.4046 12.5772 60.5168 
813 1 1 42.1852 4.74004 2.68234 
814 1 1 41.7974 4.74424 3.57537 
815 1 1 36.4417 7.82385 5.8696 
816 1 1 37.1458 7.05171 5.91166 
817 1 1 37.7137 6.36871 5.6814 
818 1 1 40.1015 4.71246 4.59417 
819 1 1 39.2932 5.27749 5.01735 
820 1 1 38.5707 5.80231 5.35936 
821 1 1 41.1902 4.26257 3.61255 
822 1 1 40.5482 4.21485 3.98737 
823 1 1 42.0137 4.15369 2.07791 
824 1 1 42.1207 3.93984 1.10864 
825 1 1 42.0875 3.50277 0.250324 
826 1 1 42.1717 4.87228 59.9181 
827 1 1 42.1296 3.50305 61.3257 
828 1 1 42.1411 3.48886 60.4378 
829 1 1 42.135 3.97983 59.6929 
830 1 1 39.896 9.54436 57.3725 
831 1 1 40.4034 8.91617 57.3595 
832 1 1 40.6026 8.17417 56.9952 
833 1 1 41.312 7.67764 57.4065 
834 1 1 42.0807 5.64604 59.2386 
835 1 1 41.6976 6.96832 57.9968 
836 1 1 41.9495 6.32765 58.6043 
837 1 1 34.3911 11.5267 3.27956 
838 1 1 34.3661 11.613 2.31076 
839 1 1 35.2371 8.74323 5.07166 
840 1 1 35.7819 7.89228 5.21967 
841 1 1 34.4132 10.618 3.63832 
842 1 1 34.5244 9.71625 4.02181 
843 1 1 34.776 8.80995 4.11059 
844 1 1 34.5246 11.7149 1.36669 
845 1 1 34.7775 11.798 0.467892 
846 1 1 35.1334 11.9498 61.612 
847 1 1 38.664 11.4192 58.5199 
848 1 1 39.2225 10.0684 57.5105 
849 1 1 38.5425 10.6896 57.8391 
850 1 1 37.8197 11.938 58.9193 
851 1 1 37.0125 12.1959 59.6289 
852 1 1 35.6065 12.0091 60.7704 
853 1 1 36.0812 11.8738 60.0241 
854 1 1 41.5632 4.01099 2.8169 
855 1 1 36.3826 7.08757 5.31193 
856 1 1 36.961 6.22947 5.25297 
857 1 1 39.7862 4.00588 3.96923 
858 1 1 37.668 5.51559 5.01537 
859 1 1 39.1358 4.40743 4.35663 
860 1 1 38.3677 4.98949 4.68728 
861 1 1 40.5772 3.65208 3.3734 
862 1 1 39.7818 3.40025 3.35073 
863 1 1 41.6396 3.43518 1.92495 
864 1 1 41.8089 3.01197 0.92267 
865 1 1 41.9535 2.7821 0.12761 
866 1 1 41.9617 2.57469 61.3509 
867 1 1 42.0885 4.74023 58.8918 
868 1 1 42.042 2.69756 60.5635 
869 1 1 42.0079 3.02836 59.7729 
870 1 1 41.7553 3.59677 58.6171 
871 1 1 39.254 9.4145 56.9405 
872 1 1 39.7808 8.69957 56.6867 
873 1 1 40.1733 7.7723 56.4342 
874 1 1 40.8036 7.30986 56.7082 
875 1 1 41.4086 6.76251 57.0558 
876 1 1 41.9537 5.34712 58.232 
877 1 1 41.7872 6.07548 57.6204 
878 1 1 34.2363 10.7422 2.71699 
879 1 1 34.1736 10.82 1.74553 
880 1 1 35.135 8.00072 4.38671 
881 1 1 35.7643 7.15753 4.61353 
882 1 1 34.2931 9.77399 3.04532 
883 1 1 34.4164 8.87148 3.23382 
884 1 1 34.6606 8.05742 3.4815 
885 1 1 34.3068 10.9435 0.79471 
886 1 1 34.618 11.0925 61.8156 
887 1 1 34.9249 11.2366 60.9669 
888 1 1 37.7642 11.1648 58.112 
889 1 1 37.8887 10.4098 57.4162 
890 1 1 38.4889 9.79894 56.9471 
891 1 1 37.0358 11.5146 58.743 
892 1 1 36.4898 11.6343 59.3126 
893 1 1 35.3679 11.2529 60.172 
894 1 1 35.8519 11.2804 59.5651 
895 1 1 40.959 3.17755 2.45566 
896 1 1 36.278 6.2872 4.68236 
897 1 1 36.882 5.5054 4.55595 
898 1 1 38.9413 3.60763 3.59606 
899 1 1 37.5171 4.72816 4.35674 
900 1 1 38.2225 4.15133 4.06209 
901 1 1 40.1633 2.9478 2.82143 
902 1 1 39.3107 2.91117 2.92841 
903 1 1 41.2828 2.69882 1.58706 
904 1 1 41.5309 2.28332 0.688507 
905 1 1 41.6001 1.86033 61.6961 
906 1 1 41.7552 1.97629 60.8662 
907 1 1 41.7763 4.4296 57.8494 
908 1 1 41.6874 2.13238 59.9361 
909 1 1 41.5962 2.56071 59.0133 
910 1 1 41.4995 2.91062 58.2042 
911 1 1 41.5188 3.47183 57.6474 
912 1 1 38.791 9.06004 56.4164 
913 1 1 39.0337 8.40979 56.1263 
914 1 1 39.5322 7.77445 56.0624 
915 1 1 40.1718 7.04868 56.0292 
916 1 1 40.8753 6.4338 56.3736 