ITEM: TIMESTEP
100000000
ITEM: NUMBER OF ATOMS
44148
ITEM: BOX BOUNDS pp pp pp
0 62
0 62
0 62
ITEM: ATOMS id mol type x y z vx vy vz 
1 1 1 33.3797 14.8875 39.0721 0.21588 0.127958 -0.102739 
2 1 1 33.0632 15.4635 38.6541 -0.00769059 0.158296 0.0347541 
3 1 1 32.6998 15.2075 39.5754 -0.0657933 -0.0760896 0.00326455 
4 1 1 32.3034 15.7569 39.0279 0.0140981 -0.0356072 -0.137872 
5 1 1 33.1238 14.5088 39.9478 0.104045 -0.0376779 -0.0373481 
6 1 1 31.8 15.4573 39.9384 -0.165948 0.132518 -0.231367 
7 1 1 31.3326 15.9907 39.3615 -0.0728738 -0.184819 -0.0359923 
8 1 1 33.747 14.8597 38.3484 0.00689805 0.22016 -0.0603737 
9 1 1 33.414 15.5202 37.7091 -0.0447563 0.0900716 0.211101 
10 1 1 32.6353 15.9553 38.0653 0.107588 0.0476186 -8.97865e-06 
11 1 1 31.8252 16.2139 38.4572 0.0580546 0.075235 -0.0912201 
12 1 1 30.9248 16.3591 38.5701 0.0349573 0.0442984 -0.065625 
13 1 1 34.0223 14.1486 38.9134 0.169028 0.0743487 -0.172135 
14 1 1 33.5906 14.2204 39.483 -0.00989066 -0.116385 -0.101872 
15 1 1 33.4461 13.7451 40.0544 0.0247123 -0.0563779 0.0309019 
16 1 1 32.3189 14.7581 40.3495 -0.051927 -0.0470025 0.185878 
17 1 1 32.7148 13.9188 40.6575 -0.129564 0.0322074 0.0482929 
18 1 1 30.4397 16.2274 39.081 -0.00655922 0.0027707 0.106239 
19 1 1 30.3578 15.8856 39.7384 -0.194982 0.0716292 0.0137452 
20 1 1 30.8265 15.4451 40.185 -0.0708974 0.0570835 0.114499 
21 1 1 31.4127 14.913 40.5825 -0.0354893 0.0300501 0.0103763 
22 1 1 34.4229 13.5983 38.581 0.0190306 0.0102377 0.0706958 
23 1 1 34.2604 14.3198 37.9358 -0.111564 0.0807719 0.0918851 
24 1 1 34.0131 14.9905 37.3031 -0.00513305 0.0274915 -0.0192687 
25 1 1 33.5833 15.4399 36.772 -0.0538766 -0.185659 -0.0729429 
26 1 1 32.8629 15.949 36.9967 -0.00608837 0.0499168 0.0224373 
27 1 1 32.0753 16.3264 37.3449 -0.0625659 0.157863 0.0468212 
28 1 1 30.0677 16.3889 38.4655 -0.024408 0.142666 0.0150277 
29 1 1 31.2559 16.522 37.6341 -0.095107 0.142949 -0.178119 
30 1 1 30.4416 16.5722 37.7044 -0.116781 0.00729074 0.0385947 
31 1 1 34.1415 13.4121 39.4284 0.0531679 0.21856 -0.0376685 
32 1 1 33.6532 13.0729 40.142 -0.152241 0.112303 -0.0117696 
33 1 1 33.0741 13.1677 40.6689 -0.00973087 -0.124633 -0.0840008 
34 1 1 31.8614 14.0617 41.0195 0.017015 0.0648181 -0.0850056 
35 1 1 32.3568 13.243 41.1332 0.0291307 0.0792891 -0.0744753 
36 1 1 29.6843 16.0748 39.2275 0.0554688 -0.0792561 0.0569169 
37 1 1 29.3921 15.7435 39.9309 -0.0681958 -0.00177201 0.123139 
38 1 1 29.1767 16.2753 38.5878 0.104204 0.256439 -0.0796054 
39 1 1 29.9193 15.3651 40.393 0.0750205 -0.112701 0.168616 
40 1 1 30.3606 14.8545 40.8297 -0.0882578 0.0172996 0.054262 
41 1 1 30.9704 14.2276 41.2932 -0.128658 0.0165159 0.128306 
42 1 1 34.5989 12.8656 38.624 0.0285398 -0.000569284 -0.0186642 
43 1 1 34.8101 13.0961 37.7223 -0.101648 0.0265164 0.0429627 
44 1 1 34.669 13.7559 37.4821 0.11279 -0.0461999 0.102172 
45 1 1 34.3867 14.4064 37.1874 0.0357771 -0.115944 0.139526 
46 1 1 34.1932 14.6925 36.4263 0.246738 0.167389 0.0366822 
47 1 1 33.7595 14.994 35.7687 -0.0409342 -0.101476 -0.00216249 
48 1 1 33.0056 15.6335 36.0786 -0.0614259 -0.169934 0.0272904 
49 1 1 32.1538 16.218 36.3585 0.060647 -0.141124 0.173404 
50 1 1 31.3157 16.5038 36.7158 0.0276669 0.137408 0.0257848 
51 1 1 29.5703 16.5396 37.8491 -0.098651 -0.0395241 0.00369631 
52 1 1 30.4956 16.6445 36.861 -0.0527541 -0.150104 -0.194055 
53 1 1 29.8677 16.6483 37.2307 -0.0770231 0.125519 0.0454059 
54 1 1 34.431 12.4388 39.1666 0.0439866 -0.0892235 0.100189 
55 1 1 34.772 11.9026 38.3306 -0.00176805 0.105985 -0.0958585 
56 1 1 34.0316 12.4713 39.8582 0.0308638 0.0997215 0.013327 
57 1 1 33.4497 12.4197 40.4862 -0.220599 0.054051 -0.234048 
58 1 1 34.2152 11.5017 39.5685 0.113043 0.116957 -0.0389764 
59 1 1 32.6168 12.417 41.1286 0.189901 -0.182702 0.0399141 
60 1 1 31.4072 13.3142 41.523 -0.0346496 0.0439602 -0.138608 
61 1 1 31.8782 12.5271 41.5456 0.125976 -0.111344 -0.00829554 
62 1 1 29.1695 15.2851 40.4285 -0.146609 -0.150531 -0.023898 
63 1 1 28.8483 15.8956 39.3452 0.0276631 -0.0723436 0.206446 
64 1 1 28.5383 15.4225 39.977 -0.0466254 0.181192 -0.204451 
65 1 1 28.6939 16.4044 37.7792 -0.124079 -0.0530598 0.0932372 
66 1 1 28.3555 16.1148 38.6482 0.111484 -0.108367 -0.0708714 
67 1 1 29.3707 14.7894 40.8464 0.217919 0.0339615 -0.0577759 
68 1 1 29.9788 14.1394 41.3596 -0.0321804 0.0827143 0.0453088 
69 1 1 30.4814 13.4239 41.64 -0.0597833 0.099774 0.00603531 
70 1 1 34.8694 12.4994 37.7333 -0.0890966 -0.0439213 -0.0385223 
71 1 1 34.9261 12.9291 37.0034 -0.0497386 0.00951845 0.186601 
72 1 1 34.7481 13.7952 36.342 -0.0519277 0.0276171 0.197948 
73 1 1 34.3477 14.2514 35.6579 -0.0315297 -0.0859945 -0.0404123 
74 1 1 33.7347 14.6569 35.0146 -0.0625357 -0.0179862 0.01116 
75 1 1 33.0314 15.2801 35.2192 -0.00270019 -0.0880764 -0.0149403 
76 1 1 32.2145 15.8501 35.4024 0.170689 -0.0686639 -0.317748 
77 1 1 31.4095 16.2719 35.8199 0.0877055 0.0738432 0.114882 
78 1 1 30.6029 16.4816 35.9034 -0.00796815 -0.047407 0.104401 
79 1 1 29.182 16.5374 37.0343 -0.0653288 0.00689437 0.0841201 
80 1 1 29.7571 16.6501 36.2127 -0.16694 0.0714423 0.0474162 
81 1 1 28.2685 16.4198 36.9562 -0.10034 0.101783 0.0467461 
82 1 1 34.9343 11.5006 37.4412 0.0246012 -0.0591316 0.06234 
83 1 1 34.558 11.2348 38.8895 -0.0383086 -0.133875 -0.293913 
84 1 1 34.8081 11.1095 38.1931 0.0264923 -0.0583225 0.0129023 
85 1 1 33.8275 11.5229 40.1089 0.0568971 0.0651437 -0.0302836 
86 1 1 33.1187 11.5802 40.6923 0.0214494 -0.13228 0.0258801 
87 1 1 34.0483 10.8006 39.6049 -0.126959 -0.0274378 0.0699438 
88 1 1 32.2323 11.5633 41.3106 -0.0801008 0.0562593 -0.117848 
89 1 1 30.9169 12.4918 41.8631 0.0854255 -0.0746664 0.0486867 
90 1 1 31.4287 11.5778 41.6969 0.00477167 -0.0904975 -0.148259 
91 1 1 28.4407 14.6981 40.6976 -0.0658075 0.0125942 -0.107591 
92 1 1 28.032 15.6266 39.3416 0.178055 0.00324002 -0.065335 
93 1 1 27.6962 14.9895 39.995 0.022297 -0.0142665 0.0104345 
94 1 1 27.8567 16.2174 37.7855 0.125009 -0.0948497 0.0338527 
95 1 1 27.5782 15.7535 38.6225 -0.128654 0.196631 0.0633207 
96 1 1 28.9826 13.9836 41.2618 -0.067171 -0.0670816 -0.0369618 
97 1 1 29.5455 13.4037 41.6646 -0.053569 0.0501538 -0.140593 
98 1 1 30.0195 12.4518 41.8885 0.292874 -0.00385255 0.124019 
99 1 1 35.0686 12.1563 36.8712 0.12592 0.0785557 0.0650671 
100 1 1 35.0007 12.7083 36.0448 -0.0509634 -0.0928926 -0.0572253 
101 1 1 34.7757 13.2646 35.3127 0.13789 -0.170339 0.015572 
102 1 1 34.2217 13.7803 34.7351 -0.0609411 0.0431473 0.121784 
103 1 1 33.154 14.8997 34.6284 -0.129977 0.137228 0.0829029 
104 1 1 33.5082 14.357 34.2947 -0.0174892 -0.0785622 0.109013 
105 1 1 32.2776 15.4412 34.4267 -0.013219 -0.0568948 -0.0573863 
106 1 1 31.418 15.9835 34.841 -0.0931905 -0.0166517 -0.236259 
107 1 1 30.6723 16.2643 35.157 -0.179252 0.114531 -0.00656681 
108 1 1 29.9942 16.4182 35.351 -0.00505045 -0.0266159 -0.0103623 
109 1 1 27.3807 16.0488 37.0294 0.189709 -0.163666 0.0551382 
110 1 1 28.7679 16.4456 36.2485 0.106485 -0.0757388 -0.0360884 
111 1 1 29.2907 16.3201 35.4123 -0.0439695 -0.164387 0.0611952 
112 1 1 27.8388 16.1418 36.1291 -0.0434324 -0.119546 -0.131661 
113 1 1 34.8047 10.6055 37.6805 -0.174756 0.137111 0.0445069 
114 1 1 34.9971 11.182 36.8245 0.020971 -0.185611 0.289606 
115 1 1 34.4664 10.2632 38.7258 0.0977845 -0.0412736 -0.0835071 
116 1 1 34.4688 9.731 37.9316 0.145251 -0.0452856 -0.074748 
117 1 1 33.446 10.6973 40.2771 -0.147672 -0.0023524 -0.024553 
118 1 1 32.6327 10.6466 40.8962 -0.0673978 0.0161942 -0.0347609 
119 1 1 33.6949 9.83561 39.6526 -0.00278154 0.052353 0.0173628 
120 1 1 31.735 10.6548 41.3638 0.113549 0.259417 -0.00347627 
121 1 1 30.5228 11.5499 41.986 0.176651 -0.0403023 -0.0664576 
122 1 1 31.0474 10.6796 41.6811 0.0403021 0.021476 0.161992 
123 1 1 27.9885 13.9302 41.0274 -0.136167 -0.173349 -0.0584297 
124 1 1 27.5942 14.3696 40.5055 -0.206845 -0.223664 -0.00831079 
125 1 1 27.2023 15.156 39.3927 0.016452 -0.157538 0.00158386 
126 1 1 27.0727 14.4777 40.0011 -0.0880487 0.114853 -0.00387129 
127 1 1 27.0467 15.7874 37.8796 -0.0131862 -0.110331 0.0708167 
128 1 1 26.7831 15.3365 38.5333 -0.0883972 -0.0282711 0.0374973 
129 1 1 26.6033 15.6721 37.0357 -0.12186 -0.0439233 0.0194147 
130 1 1 29.6606 11.5117 41.9417 0.0870294 0.000484109 -0.20911 
131 1 1 28.5539 13.2825 41.4413 0.0200876 -0.00446947 -0.00916541 
132 1 1 29.0493 12.2967 41.777 0.0539238 0.177735 0.0570057 
133 1 1 35.0681 11.6943 36.0447 0.0234003 -0.023828 0.126345 
134 1 1 34.9706 12.2701 35.3069 -0.0958667 -0.0653757 -0.0597294 
135 1 1 33.6824 13.7023 33.9141 -0.196973 -0.00553499 -0.0329848 
136 1 1 34.6145 12.8093 34.6131 0.0566567 0.0968544 0.179599 
137 1 1 34.1099 13.0816 34.042 0.0156259 0.175034 0.0173555 
138 1 1 32.7713 14.7227 33.8944 -0.0789427 0.0753787 0.0776788 
139 1 1 33.166 14.0225 33.6293 -0.157682 0.0556123 -0.0141308 
140 1 1 31.9372 14.9812 33.5598 0.0361926 -0.177404 0.0679232 
141 1 1 31.2205 15.6559 34.0363 0.163979 0.0856887 -0.028385 
142 1 1 30.7435 15.9687 34.4857 0.102731 -0.0237042 -0.101539 
143 1 1 29.7991 16.1167 34.6383 0.0613466 -0.0694891 -0.0151619 
144 1 1 26.9635 15.8211 36.1858 0.205726 -0.130805 -0.189967 
145 1 1 28.4855 16.1473 35.3962 0.113124 -0.0644201 0.153187 
146 1 1 28.9346 16.036 34.8237 -0.144945 0.0207558 -0.235083 
147 1 1 27.5528 15.8338 35.4164 0.0806935 -0.0147834 -0.0718673 
148 1 1 34.7343 10.111 37.0938 0.243974 -0.0621596 0.04893 
149 1 1 34.8464 10.588 36.1254 0.103692 0.231806 -0.104873 
150 1 1 33.8597 9.32187 38.8865 -0.109941 -0.122436 0.196798 
151 1 1 34.3626 9.31138 37.204 -0.0864024 0.0447323 -0.226653 
152 1 1 33.8205 8.80911 37.976 0.067785 0.0821983 -0.0252027 
153 1 1 32.9774 9.86378 40.3545 -0.0701718 -0.0501339 0.106947 
154 1 1 32.086 9.78398 40.9044 -0.00561451 -0.0498294 0.00968231 
155 1 1 33.1708 9.08464 39.6021 0.18769 0.0262441 -0.0934217 
156 1 1 31.1477 9.86986 41.3611 -0.176974 0.0728796 -0.0516862 
157 1 1 30.1217 10.6943 41.8442 -0.0463448 0.0274148 0.151269 
158 1 1 30.5312 10.0593 41.6296 0.0128765 -0.160145 0.0947031 
159 1 1 27.728 13.2123 41.1411 0.032426 0.0103578 -0.12085 
160 1 1 27.1343 13.6636 40.5807 0.0938668 -0.115823 -0.0133976 
161 1 1 26.5241 13.8964 39.8772 0.0693951 -0.16547 0.0457794 
162 1 1 26.4542 14.5778 39.1992 -0.0296639 0.232154 0.01596 
163 1 1 26.2305 15.2986 37.7367 -0.0104671 -0.0584584 -0.0776817 
164 1 1 26.1685 14.8967 38.4194 -0.0335568 0.0913906 -0.228105 
165 1 1 26.1201 15.5073 36.2991 0.0833317 0.0969241 0.100576 
166 1 1 25.912 15.3305 37.0261 0.0245524 0.0740953 -0.018297 
167 1 1 28.8796 11.3718 41.7755 0.0249649 0.0932153 0.0576199 
168 1 1 29.3601 10.7128 41.7615 0.103692 -0.147813 -0.14541 
169 1 1 27.9016 12.5364 41.4388 0.0394227 0.257325 0.0228225 
170 1 1 28.1866 11.7224 41.5684 0.083645 0.0121304 -0.044659 
171 1 1 34.8371 11.1109 35.233 -0.0515044 -0.0493048 -0.194762 
172 1 1 34.6465 11.7135 34.5522 -0.131377 0.198639 0.0286542 
173 1 1 33.4179 13.2302 33.4285 -0.0823115 -0.0107533 0.00425395 
174 1 1 34.237 12.178 33.9199 0.021762 -0.0155993 -0.0411998 
175 1 1 33.768 12.7051 33.5227 0.0807334 -0.0583498 -0.0995489 
176 1 1 32.8194 13.4205 33.0258 -0.0356398 0.171552 -0.107362 
177 1 1 32.4351 14.2347 33.2371 -0.113711 0.14995 0.0507159 
178 1 1 31.534 14.4158 32.8925 -0.251142 0.142018 0.0258725 
179 1 1 31.0302 15.1316 33.3657 0.125045 0.153803 -0.0137712 
180 1 1 30.3876 15.7196 33.9394 0.102016 0.0589809 0.024148 
181 1 1 29.6443 15.5791 33.7683 -0.0511584 -0.282037 -0.186285 
182 1 1 29.0701 15.7186 34.1039 -0.113959 0.081765 -0.0359603 
183 1 1 26.5235 15.5349 35.3379 0.0292851 0.0240178 -0.157889 
184 1 1 25.6716 15.2957 35.6708 0.174342 0.0329379 -0.0467874 
185 1 1 28.1139 15.7633 34.5589 0.236229 -0.120546 -0.0878144 
186 1 1 27.0828 15.6099 34.7518 -0.11212 0.0442941 0.0166309 
187 1 1 34.5024 9.75487 36.3168 -0.0127145 0.136743 -0.0193936 
188 1 1 34.5922 10.2028 35.3142 -0.203019 -0.103857 -0.0511408 
189 1 1 33.3319 8.56783 38.8611 -0.0551069 0.0171981 0.00957692 
190 1 1 33.1881 8.07316 38.2105 -0.218749 -0.0397574 -0.0786293 
191 1 1 34.1641 9.06464 36.5407 0.0241918 -0.0712755 0.0258154 
192 1 1 33.9208 8.65792 37.0737 -0.0899003 0.0722691 -0.04772 
193 1 1 33.4637 8.21996 37.5207 -0.0534161 0.0342513 -0.0318281 
194 1 1 32.343 9.00088 40.2121 0.0161669 -0.0186794 0.148154 
195 1 1 31.4667 9.00918 40.7592 0.0120619 -0.0238118 0.00774658 
196 1 1 32.5435 8.3626 39.527 -0.190971 0.0415374 -0.0519583 
197 1 1 30.5014 9.20649 41.205 -0.0898903 -0.15152 0.0378458 
198 1 1 29.823 9.86108 41.5051 -0.107778 -0.0565893 -0.00617696 
199 1 1 27.2469 12.7311 40.9949 -0.0136059 0.204234 -0.0385467 
200 1 1 26.7094 12.7833 40.524 0.114542 -0.0335807 0.153878 
201 1 1 26.3298 13.327 40.0618 0.0752616 -0.201668 -0.130021 
202 1 1 25.9081 13.7687 39.4053 0.00708038 0.0100097 -0.139568 
203 1 1 25.5389 14.1917 38.6105 0.168871 -0.04494 0.0513858 
204 1 1 25.485 14.7595 37.6768 0.0494867 -0.0324116 0.0774604 
205 1 1 25.1626 15.0586 36.4676 -0.0982202 0.0893039 0.00396403 
206 1 1 28.471 10.8213 41.5788 0.00530916 0.201063 0.0872549 
207 1 1 28.9792 9.97868 41.4455 0.0198311 -0.127875 -0.10237 
208 1 1 27.3703 11.8171 41.157 0.0852747 0.116146 0.10173 
209 1 1 27.7132 10.9319 41.2816 -0.0111225 0.0955579 0.1672 
210 1 1 34.3591 10.7722 34.4921 -0.0646568 0.0512716 -0.0238893 
211 1 1 34.0366 11.2994 33.8563 -0.0641771 -0.0312206 0.0474381 
212 1 1 33.1398 12.6021 32.9907 0.113847 0.0791954 -0.0377404 
213 1 1 33.5094 11.7804 33.2275 -0.187391 -0.105399 0.061418 
214 1 1 32.3376 12.8012 32.599 0.00497989 -0.117742 -0.105763 
215 1 1 32.0382 13.6972 32.6884 0.0290722 0.0554342 -0.00713712 
216 1 1 24.9313 15.0139 35.4724 0.102939 -0.0181108 0.10784 
217 1 1 25.6427 15.2303 34.8542 -0.0126609 0.00859311 -0.0086181 
218 1 1 31.1586 13.6898 32.3515 0.0420212 -0.0767979 -0.0801132 
219 1 1 30.6179 14.4051 32.6221 0.287126 0.0524553 -0.125643 
220 1 1 30.0469 15.1133 33.1733 0.0537837 0.179179 0.0554053 
221 1 1 29.0604 15.2725 33.349 0.0202127 0.014371 0.0378776 
222 1 1 28.2597 15.3866 33.6376 0.1871 -0.127568 -0.0243867 
223 1 1 26.4878 15.3366 34.4314 0.0528047 -0.0902574 0.0193457 
224 1 1 27.2614 15.4388 33.9501 -0.015578 0.0804058 0.103118 
225 1 1 34.0413 9.92254 34.565 0.0589998 -0.0373676 0.0231315 
226 1 1 34.1704 9.27678 35.4916 -0.0374918 0.125069 0.0667223 
227 1 1 32.5164 7.83424 38.7812 0.249051 -0.0423341 -0.0392062 
228 1 1 32.5902 7.57933 38.0729 -0.0723717 -0.0503389 -0.00302409 
229 1 1 32.9221 7.73991 37.517 -0.0175843 -0.0466562 -0.0357484 
230 1 1 33.7413 8.58049 36.1888 0.0166446 0.0316039 0.0823947 
231 1 1 33.349 8.02818 36.8797 0.00106676 -0.0236736 -0.0607583 
232 1 1 31.6631 8.32115 40.057 -0.040411 0.127795 -0.0936611 
233 1 1 30.8284 8.30555 40.4845 -0.20463 0.112082 -0.0340725 
234 1 1 31.7744 7.77039 39.3455 -0.00356782 -0.144226 -0.00507712 
235 1 1 29.939 8.39375 40.6395 -0.326782 -0.0615046 -0.0138417 
236 1 1 29.4554 9.11436 41.1263 0.0960819 0.0696075 -0.0953221 
237 1 1 26.7161 12.0882 40.7068 -0.003605 0.0351142 -0.126431 
238 1 1 25.8952 12.372 40.1806 0.0183621 0.147438 -0.0251312 
239 1 1 25.4715 13.0424 39.5721 0.0268648 -0.0167585 0.0259406 
240 1 1 25.0727 13.6292 38.8107 0.0902704 0.0559311 0.168566 
241 1 1 24.7496 14.0242 37.9668 -0.126198 -0.274434 -0.00495666 
242 1 1 24.5454 14.4843 37.1686 0.14068 0.193376 -0.0144212 
243 1 1 24.3389 14.7379 36.0429 0.0157047 0.0733038 -0.137765 
244 1 1 28.1647 10.0696 41.2608 0.179806 -0.13212 -0.025745 
245 1 1 28.5601 9.17269 40.9783 -0.0629529 0.120965 0.016039 
246 1 1 26.8649 11.1041 40.8494 0.00105234 0.0427 0.0200723 
247 1 1 27.2839 10.2547 40.8136 -0.0467797 0.147402 -0.10509 
248 1 1 33.6769 10.4352 33.918 -0.0147334 0.0284815 -0.0261691 
249 1 1 33.4302 10.8443 33.4633 0.0428658 -0.103646 0.0157893 
250 1 1 32.6872 11.866 32.6933 -0.0671634 0.103164 0.0356172 
251 1 1 32.9189 10.9659 32.9166 -0.0829452 -0.0251725 -0.0420643 
252 1 1 31.9287 12.11 32.2274 0.0348058 0.0854098 -0.128046 
253 1 1 31.5121 12.9285 32.1872 0.12563 -0.0700338 -0.0307789 
254 1 1 24.1669 14.7353 34.9759 -0.0440814 -0.0103539 -0.0544043 
255 1 1 24.8698 14.9891 34.4001 -0.18891 0.0327598 -0.0759712 
256 1 1 25.7608 15.0934 33.9409 -0.128079 0.253186 0.154401 
257 1 1 30.7603 13.0739 31.834 0.0363704 0.0374044 0.0914856 
258 1 1 30.3117 13.7707 32.0826 0.0979886 -0.107734 0.0604735 
259 1 1 29.8792 14.4007 32.3623 0.0423499 0.097035 -0.00879064 
260 1 1 29.1138 14.7114 32.5311 0.0580868 -0.0302466 0.0841167 
261 1 1 28.3469 14.9311 32.7217 0.0235225 0.0904524 0.110759 
262 1 1 27.4674 15.1227 33.0772 -0.127092 0.0547413 -0.0542805 
263 1 1 26.5504 15.1914 33.4328 -0.0399474 0.0804432 -0.0467459 
264 1 1 33.4696 9.72858 34.0662 0.0219291 -0.130041 -0.0506303 
265 1 1 33.5532 9.22176 34.6078 -0.00335874 -0.113462 0.111812 
266 1 1 33.4326 8.48775 35.3214 -0.0574022 -0.118095 0.0248 
267 1 1 31.7159 7.26419 38.4401 -0.135468 0.16265 0.00961025 
268 1 1 32.2346 7.28593 37.6223 -0.0292499 0.00142534 0.0372384 
269 1 1 32.6464 7.51323 36.8332 0.0471527 0.0233668 -0.186969 
270 1 1 33.0644 7.93218 36.1274 -0.124024 -0.0814483 0.11196 
271 1 1 31.0352 7.74246 39.799 -0.0524343 0.0937939 0.128248 
272 1 1 30.3354 7.87882 40.1074 0.0336695 0.0540657 0.0447597 
273 1 1 31.1373 7.38869 39.1009 -0.180861 0.0934923 0.0864645 
274 1 1 29.6393 7.81183 40.0464 -0.0994764 -0.0140028 0.0571113 
275 1 1 29.118 8.39642 40.5644 0.138794 0.0261439 0.0278428 
276 1 1 26.1323 11.3819 40.3469 0.0385143 0.154863 -0.00613986 
277 1 1 25.4681 11.454 39.9394 0.167874 -0.0440759 0.0437155 
278 1 1 24.9727 12.0632 39.5471 -0.0954324 -0.0244717 0.0521759 
279 1 1 24.6403 12.7389 39.0592 0.0265389 0.114114 0.0189326 
280 1 1 24.3102 13.2741 38.3805 -0.0821067 0.132275 -0.179027 
281 1 1 23.9477 13.8151 37.5255 -0.0983898 0.0207542 -0.130953 
282 1 1 23.8122 14.2037 36.598 -0.0147932 -0.0311278 -0.0519898 
283 1 1 23.5477 14.3687 35.5816 0.038065 0.0310205 0.0565563 
284 1 1 27.7208 9.46693 40.7503 -0.0739497 -0.136585 -0.0830076 
285 1 1 28.1199 8.63884 40.4065 -0.0260422 0.015817 -0.183037 
286 1 1 26.4339 10.5738 40.4491 0.0517582 -0.0868453 0.00456738 
287 1 1 26.9102 9.65516 40.429 0.0299464 -0.105826 0.107568 
288 1 1 32.9483 10.0942 33.3687 -0.126696 0.0444736 0.137096 
289 1 1 32.2052 11.232 32.4201 -0.156046 0.0145741 0.131222 
290 1 1 32.4323 10.5975 32.706 -0.121152 -0.265983 -0.0242199 
291 1 1 23.3697 14.419 34.6107 -0.0391931 -0.159491 -0.0986328 
292 1 1 31.4274 11.3191 31.8709 -0.0591901 -0.215448 -0.0333556 
293 1 1 31.1442 12.1683 31.7808 -0.0493223 -0.0759428 -0.184521 
294 1 1 24.0139 14.702 33.9597 0.0342539 0.0401195 0.0573904 
295 1 1 24.8828 14.9067 33.4657 0.0381066 -0.126387 0.0692014 
296 1 1 25.7298 14.8889 33.022 0.031973 0.0529596 0.0509141 
297 1 1 30.2575 12.4442 31.3781 -0.0132665 -0.0932576 -0.201755 
298 1 1 30.0478 13.1686 31.5733 0.00835108 -0.0296055 -0.0914908 
299 1 1 29.3945 13.861 31.7887 0.210425 0.0306983 0.151662 
300 1 1 28.4064 14.2933 31.9797 -0.254444 -0.145691 0.0704558 
301 1 1 27.5268 14.5886 32.2837 0.078107 0.104298 -0.281462 
302 1 1 26.5946 14.8338 32.5934 -0.0304201 -0.0127457 0.0772078 
303 1 1 32.6577 7.94399 35.2947 -0.106647 0.0817802 -0.0038318 
304 1 1 32.9471 9.2683 33.8675 -0.155409 0.0527602 0.0224884 
305 1 1 32.8765 8.57109 34.5571 -0.0713403 0.16417 0.0433905 
306 1 1 30.7725 7.1045 38.5409 0.116238 -0.0513197 0.213483 
307 1 1 31.384 6.95462 37.6396 -0.110107 -0.0860333 0.0720491 
308 1 1 31.8866 7.12454 36.8127 0.00267649 -0.167213 -0.0208039 
309 1 1 32.349 7.46809 36.0217 -0.0126233 -0.10256 -0.103838 
310 1 1 30.285 7.45669 39.3622 -0.251993 0.135406 0.119932 
311 1 1 29.3366 7.44085 39.4318 0.158756 -0.0725336 0.0191573 
312 1 1 28.5948 7.88151 39.8274 -0.0254714 -0.155475 -0.0316791 
313 1 1 25.6073 10.6069 39.9585 -0.0302868 0.0100169 -0.0568945 
314 1 1 24.9079 11.1457 39.5855 -0.160925 0.218796 0.0593725 
315 1 1 24.3093 11.7831 39.1018 0.0974198 -0.124937 0.00757021 
316 1 1 23.906 12.3252 38.5448 0.124015 -0.116282 0.0957979 
317 1 1 23.4904 13.0023 37.8809 -0.0642047 -0.185567 -0.116728 
318 1 1 23.1915 13.5454 36.9716 0.104648 0.0681229 0.024217 
319 1 1 22.9041 13.8368 35.9904 0.0624809 -0.13176 0.0378843 
320 1 1 22.6867 14.0153 34.9961 0.0729477 0.117561 -0.102847 
321 1 1 27.2566 8.90589 40.1825 -0.086422 0.0829478 -0.0231661 
322 1 1 27.6945 8.25269 39.921 -0.0579555 0.0876331 0.00715262 
323 1 1 26.0408 9.75909 40.0061 -0.0805242 -0.144489 -0.043481 
324 1 1 26.5375 9.10351 39.9952 -0.0281021 0.198789 0.0824908 
325 1 1 32.3424 9.33794 33.2292 -0.0953469 -0.113395 -0.138303 
326 1 1 32.1004 9.79994 32.8239 -0.016267 -0.0454339 -0.11692 
327 1 1 31.6221 10.3172 32.2083 0.02651 0.0585033 -0.0334809 
328 1 1 30.913 10.7516 31.612 -0.0985917 0.0982771 -0.0532621 
329 1 1 22.5551 14.1364 33.9393 0.0679116 -0.0863806 -0.0408622 
330 1 1 23.2613 14.457 33.4754 -0.10103 -0.0124598 0.0472649 
331 1 1 30.5309 11.5536 31.3254 -0.105217 -0.217188 -0.0524645 
332 1 1 24.0503 14.6244 32.8773 0.036766 0.0102331 0.00557706 
333 1 1 25.0007 14.7362 32.4336 0.0427693 0.156431 0.0559874 
334 1 1 25.8084 14.5555 32.0319 0.234544 -0.00275592 0.183901 
335 1 1 29.6744 12.0488 30.9413 -0.030675 -0.213369 0.073297 
336 1 1 29.2725 12.8176 31.0345 -0.0249904 0.0582544 0.0483848 
337 1 1 28.4993 13.5763 31.1902 -0.00115777 0.0480085 0.0154375 
338 1 1 27.6537 14.0616 31.4544 0.134824 0.0690795 -0.0419907 
339 1 1 26.7798 14.3397 31.7154 -0.0280265 0.150442 -0.0424664 
340 1 1 30.1469 6.9658 38.3895 -0.0306396 -0.0265801 -0.0631565 
341 1 1 31.8141 7.48156 35.2864 0.0636825 -0.0386729 -0.172018 
342 1 1 32.1227 7.97058 34.5622 0.0351854 -0.000327635 -0.0179505 
343 1 1 32.1646 8.59145 33.6685 0.0784089 0.0735486 0.000962277 
344 1 1 30.5368 6.79751 37.7553 -0.0568353 0.0468498 -0.0598684 
345 1 1 31.093 6.82238 36.7878 0.0350025 -0.0831069 0.220235 
346 1 1 31.452 7.03427 36.0356 -0.183816 0.00781417 -0.0335826 
347 1 1 31.0397 7.00384 35.2993 0.00763332 -0.031244 0.0699551 
348 1 1 29.4678 7.07727 38.8434 -0.0153485 0.0708387 -0.049145 
349 1 1 28.6605 7.21868 39.0513 0.100232 0.00209723 0.0418763 
350 1 1 27.624 7.59783 39.2522 -0.036934 0.176337 0.0478368 
351 1 1 25.3754 9.68979 39.7265 0.0308383 -0.0282652 -0.112444 
352 1 1 24.7262 10.2295 39.52 -0.0745138 0.0521682 0.0641072 
353 1 1 24.1296 10.7986 39.1561 -0.00917026 0.00409732 -0.0341153 
354 1 1 23.5592 11.365 38.6574 0.169575 -0.179864 0.126748 
355 1 1 23.0911 12.1031 38.0491 0.139084 0.0565457 -0.0903366 
356 1 1 22.7237 12.7405 37.329 0.0854099 0.0375152 -0.115787 
357 1 1 22.3318 13.1476 36.4973 0.0694493 0.0588614 0.101617 
358 1 1 22.052 13.4612 35.5422 0.0754369 -0.139579 -0.182514 
359 1 1 21.9066 13.728 34.4257 -0.0379394 0.014015 -0.0522549 
360 1 1 26.8199 8.18996 39.5377 -0.0596237 0.155276 -0.0356059 
361 1 1 25.7234 8.79668 39.5789 0.0224949 -0.0790454 -0.143486 
362 1 1 31.6961 8.95009 32.8341 -0.02529 -0.0344458 0.00171403 
363 1 1 31.3297 9.38581 32.2589 -0.132733 0.022234 -0.00553985 
364 1 1 30.6892 9.94425 31.6127 0.120384 -0.0532468 -0.0480321 
365 1 1 30.232 10.6617 31.156 -0.102476 -0.0699735 -0.0996522 
366 1 1 21.7901 13.9326 33.378 -0.0612247 -0.152204 0.0812034 
367 1 1 22.4399 14.1426 32.9321 -0.100147 0.122847 -0.0833863 
368 1 1 23.2779 14.3751 32.4306 -0.177692 0.0349964 0.0502354 
369 1 1 29.7035 11.3354 30.7838 0.105795 0.142717 0.0180596 
370 1 1 24.1298 14.4234 31.9517 0.0849195 0.0577353 -0.0484929 
371 1 1 24.9618 14.316 31.4968 0.0626105 0.156144 -0.00261324 
372 1 1 25.8802 13.9914 31.1879 0.229539 0.0234775 0.209045 
373 1 1 28.9938 11.9712 30.5614 -0.093644 0.0184307 -0.0489845 
374 1 1 28.3385 12.7255 30.579 0.251171 -0.0407744 0.18728 
375 1 1 27.5984 13.2758 30.7678 -0.0864121 0.0824404 0.0599738 
376 1 1 26.8153 13.742 30.9841 -0.0685969 0.0724159 0.148267 
377 1 1 29.5867 6.61544 37.7912 -0.10923 0.090386 0.0315494 
378 1 1 31.3266 7.5222 34.5694 0.0993651 -0.0844919 0.129347 
379 1 1 31.5539 7.92169 33.9168 -0.0768523 0.0161195 -0.145233 
380 1 1 31.2423 8.11174 33.0649 -0.110971 0.035594 0.167781 
381 1 1 30.1927 6.52544 36.868 0.0824901 0.144371 0.09049 
382 1 1 30.635 6.63736 36.1111 -0.135205 0.0811563 -0.000725489 
383 1 1 30.1798 6.59373 35.2598 -0.11845 -0.150052 0.0754762 
384 1 1 30.6925 7.04139 34.7098 0.0504055 0.0122243 0.0334004 
385 1 1 28.7091 6.70063 38.3254 0.0709978 -0.0375227 0.0216188 
386 1 1 27.7734 6.93412 38.6246 -0.0223942 0.0406282 0.0928221 
387 1 1 26.8311 7.30143 38.8738 0.0433837 -0.0471714 -0.0214774 
388 1 1 24.8695 9.32269 39.4271 -0.141064 -0.166127 0.152355 
389 1 1 24.0343 9.83356 39.1589 0.0922491 0.0174238 -0.164959 
390 1 1 23.3243 10.4814 38.6889 -0.0314759 -0.0263319 -0.0715806 
391 1 1 22.8032 11.149 38.1751 -0.0752514 0.10269 0.0758374 
392 1 1 22.3454 11.7937 37.5453 0.00240016 -0.146308 -0.0264997 
393 1 1 21.9407 12.3 36.8158 -0.0783001 0.0209216 -0.0840102 
394 1 1 21.5163 12.7494 35.9772 -0.0119384 -0.0256488 0.067796 
395 1 1 21.292 13.2087 34.9672 -0.0082051 -0.0136782 0.142777 
396 1 1 21.0907 13.4285 33.9718 0.0301301 -0.117086 0.165876 
397 1 1 25.9205 7.81804 39.0668 -0.0673629 -0.00924449 0.0359158 
398 1 1 24.9783 8.42239 39.1023 -0.0692743 -0.100701 -0.138751 
399 1 1 30.8535 8.51192 32.3516 -0.184331 0.128496 0.00606894 
400 1 1 30.5279 9.06922 31.7531 -0.00263063 -0.0374259 0.020604 
401 1 1 29.9679 9.69355 31.1334 0.0320059 -0.0685952 -0.00958768 
402 1 1 20.9332 13.5957 33.0571 -0.0670681 -0.0155456 -0.0681615 
403 1 1 29.496 10.3973 30.6062 0.106025 -0.0183688 -0.00846789 
404 1 1 21.5486 13.8668 32.3891 -0.107479 -0.0338786 0.129868 
405 1 1 22.4372 14.0682 31.9319 0.0545703 0.00234831 -0.0689528 
406 1 1 23.2563 14.1443 31.378 0.0996711 -0.0312504 -0.141594 
407 1 1 28.8055 11.1261 30.2854 0.0406824 -0.0505246 -0.0219659 
408 1 1 24.135 14.006 31.0233 0.0260915 -0.052119 0.0784184 
409 1 1 24.9919 13.7543 30.6827 -0.232562 0.0676533 0.0772072 
410 1 1 25.8938 13.4473 30.5022 -0.0635677 0.0475472 0.0926929 
411 1 1 28.2024 11.8028 30.0912 0.0557114 -0.202874 -0.0619677 
412 1 1 27.501 12.4062 30.096 -0.0875415 0.149048 0.0694064 
413 1 1 26.7787 12.93 30.2273 -0.219933 0.0407449 0.135429 
414 1 1 29.4222 6.33451 36.8478 0.0499876 0.0648795 0.112428 
415 1 1 28.6142 6.26017 37.3377 0.0437238 -0.163223 0.0233299 
416 1 1 30.6567 7.50962 33.8025 0.0171093 0.108819 -0.0222581 
417 1 1 30.377 7.75487 32.7316 -0.073095 -0.00092512 0.0955906 
418 1 1 29.7055 6.28661 36.0462 0.00640838 -0.176971 0.138275 
419 1 1 29.4594 6.26358 35.1356 0.251847 -0.00799098 -0.28023 
420 1 1 29.8791 6.77622 34.2911 0.0689696 -0.0962715 -0.155506 
421 1 1 27.9164 6.39876 37.9156 0.0929765 0.0663769 -0.0503246 
422 1 1 26.9633 6.64081 38.2418 0.0327497 -0.025166 -0.0397316 
423 1 1 26.0327 7.11604 38.4369 0.0535985 -0.0388857 -0.181137 
424 1 1 24.0026 8.90565 38.9034 0.0772748 0.150872 0.104081 
425 1 1 23.2785 9.52804 38.6321 0.0909659 -0.083171 -0.0264345 
426 1 1 22.5632 10.1472 38.1477 -0.0497339 0.0404571 -0.0101197 
427 1 1 22.0596 10.7832 37.6037 -0.0423476 0.165449 -0.0585993 
428 1 1 21.6203 11.4624 37.0314 -0.0768799 0.0942143 0.142554 
429 1 1 20.321 13.1293 33.5761 0.0675843 0.071165 -0.0233298 
430 1 1 21.1428 11.9145 36.3022 -0.230712 -0.227854 -0.0146259 
431 1 1 20.7213 12.4429 35.4779 0.028494 -0.122009 -0.0789809 
432 1 1 20.4495 12.8672 34.5416 0.143123 0.0434025 -0.0303021 
433 1 1 25.0809 7.59057 38.6466 0.0363707 0.0684045 -0.0293697 
434 1 1 24.097 8.04918 38.5711 -0.0456476 -0.0156169 -0.0271026 
435 1 1 30.0342 8.20819 31.8705 0.0727304 0.0382089 -0.0621569 
436 1 1 29.6858 8.85375 31.2248 -0.100746 0.0282852 0.147714 
437 1 1 29.197 9.45878 30.6536 0.0838803 0.0218138 -0.079876 
438 1 1 20.0935 13.2522 32.5565 0.113439 0.0818101 0.0230467 
439 1 1 20.8536 13.6438 31.9651 -0.0309463 0.0230565 -0.0965663 
440 1 1 28.6979 10.1611 30.2006 -0.0538528 -0.163348 -0.114284 
441 1 1 21.6358 13.7951 31.4098 0.0197636 -0.0295927 -0.0389157 
442 1 1 22.5033 13.8298 30.9055 -0.0430316 0.195237 -0.163146 
443 1 1 23.3119 13.7577 30.4854 0.0589746 -0.0275661 -0.0186861 
444 1 1 28.0394 10.7431 29.8475 0.0693957 -0.129167 0.0886151 
445 1 1 24.1445 13.5092 30.1732 -0.042268 -0.120736 0.00838891 
446 1 1 25.0302 13.0844 29.9585 -0.0898702 0.190091 -0.082638 
447 1 1 25.9991 12.6512 29.7019 0.00644811 -0.226386 0.166226 
448 1 1 27.3951 11.4244 29.6318 -0.0635463 -0.0326026 -0.0719465 
449 1 1 26.7055 12.0758 29.5947 0.0576292 0.0119584 0.0461795 
450 1 1 28.8175 6.03922 36.4708 -0.0896492 0.0945246 0.0571009 
451 1 1 27.8685 5.95623 36.9523 -0.078182 -0.0653739 -0.140943 
452 1 1 29.792 7.05735 33.2641 -0.0996687 -0.225023 -0.0254157 
453 1 1 29.6425 7.43845 32.3297 0.0188008 -0.00112931 -0.0610329 
454 1 1 28.8338 5.93567 35.5816 -0.0312712 -0.0584316 -0.0350395 
455 1 1 28.9501 6.17424 34.6052 0.0832967 0.0796125 0.0130719 
456 1 1 29.0467 6.41682 33.7028 0.0566391 0.0965535 -0.11719 
457 1 1 27.1345 6.10968 37.4092 0.0633513 -0.0483042 -0.111704 
458 1 1 26.1728 6.41343 37.709 0.0265775 0.106124 -0.03344 
459 1 1 25.2667 6.82823 37.9753 -0.0444252 -0.0317642 -0.014056 
460 1 1 23.14 8.60308 38.4771 -0.0550082 0.110164 -0.184387 
461 1 1 22.4254 9.23625 38.1414 0.124709 -0.185198 0.0510721 
462 1 1 21.7665 9.73059 37.6883 -0.0261853 0.07787 -0.0703538 
463 1 1 21.2408 10.4129 37.2254 -0.052604 -0.0242069 0.0915618 
464 1 1 20.8176 11.0147 36.6076 -0.0220941 -0.185722 0.188748 
465 1 1 19.5523 12.8499 33.0542 0.00363347 -0.19057 -0.288853 
466 1 1 19.6815 12.5103 34.0243 -0.0882721 -0.115821 0.0126696 
467 1 1 20.4041 11.6458 35.9039 0.0380538 0.0213178 0.145734 
468 1 1 19.9656 12.1032 35.0302 0.0175824 0.107066 0.0454353 
469 1 1 24.3505 7.20646 38.1094 -0.126052 -0.0255928 -0.138063 
470 1 1 23.3042 7.73802 38.1249 0.170887 -0.00765612 0.00899027 
471 1 1 29.2359 7.90505 31.5108 0.0990104 0.0489726 0.158217 
472 1 1 28.9324 8.53759 30.89 -0.0724321 0.0318687 0.0248204 
473 1 1 28.457 9.14814 30.1709 0.0726209 0.0413936 -0.068657 
474 1 1 19.2546 12.9438 31.9925 0.0107516 -0.095936 0.0739749 