ITEM: TIMESTEP
0
ITEM: NUMBER OF ATOMS
44148
ITEM: BOX BOUNDS pp pp pp
0 62
0 62
0 62
ITEM: ATOMS id mol type x y z vx vy vz 
1 1 1 6.12919 28.6103 22.3675 0.191934 0.143112 -0.0380009 
2 1 1 6.37446 27.9382 22.8546 0.101706 -0.233478 -0.0258161 
3 1 1 7.01885 28.5165 22.3801 0.080554 -0.00801948 0.239806 
4 1 1 7.27809 27.7724 22.8384 -0.0310613 -0.0916575 -0.103793 
5 1 1 6.66965 29.1606 21.7992 -0.12567 0.0636428 0.197031 
6 1 1 7.9335 28.3302 22.2429 -0.025001 -0.0659233 -0.0597834 
7 1 1 8.27367 27.4984 22.632 -0.106835 -0.0734945 -0.1227 
8 1 1 5.45142 28.1317 22.6469 0.00309172 -0.0450491 -0.030892 
9 1 1 5.64646 27.3028 23.1326 0.00846109 0.00631948 0.0554153 
10 1 1 6.57068 27.1619 23.2269 -0.0579046 -0.0263042 0.01677 
11 1 1 7.48408 26.9835 23.146 0.0210076 0.0272871 0.0688098 
12 1 1 8.24968 26.5877 23.0032 -0.0178844 0.0339081 -0.0826397 
13 1 1 5.29023 28.8551 22.0045 -0.0435675 -0.0980131 -0.180982 
14 1 1 5.92838 29.1736 21.7856 0.142172 0.0500703 0.050571 
15 1 1 6.13304 29.6046 21.2113 0.0328938 0.0571727 -0.0168307 
16 1 1 7.57388 29.0214 21.7253 -0.0809202 -0.0887787 0.00974729 
17 1 1 7.10503 29.6023 21.0893 0.0470729 0.0243595 0.0346979 
18 1 1 8.87025 26.8093 22.6012 0.0407484 -0.0950379 0.1664 
19 1 1 9.15995 27.3894 22.1268 0.0719605 0.0721831 0.0455577 
20 1 1 8.80863 28.0802 21.9261 -0.0409989 -0.0960394 -0.134692 
21 1 1 8.46959 28.7734 21.5033 -0.0828523 -0.102317 0.114862 
22 1 1 4.59287 28.8355 21.7397 -0.0394699 0.0925591 -0.0660125 
23 1 1 4.67816 28.1133 22.4204 -0.100479 -0.0658758 0.0121141 
24 1 1 4.78888 27.3402 22.9079 0.133368 -0.0882206 0.0274625 
25 1 1 4.96002 26.6141 23.223 0.114158 -0.0943852 0.070365 
26 1 1 5.86507 26.3989 23.4428 -0.0180707 -0.125178 -0.1002 
27 1 1 6.78743 26.2109 23.4725 0.0569509 -0.0823702 0.146919 
28 1 1 8.94306 26.037 22.7544 -0.177015 -0.0637825 -0.148633 
29 1 1 7.59935 25.938 23.3609 -0.00948367 -0.0658633 0.0554624 
30 1 1 8.35394 25.5696 23.1193 -0.0960616 -0.0398556 -0.0853014 
31 1 1 5.16625 29.4441 21.23 0.116184 0.19959 0.13575 
32 1 1 5.78401 29.8955 20.6174 -0.0503197 -0.158854 0.080972 
33 1 1 6.60519 29.9736 20.4761 -0.0324419 0.0164904 0.0122946 
34 1 1 8.04684 29.4378 20.8703 -0.0142301 0.120869 -0.133814 
35 1 1 7.43751 29.9278 20.2534 -0.0622987 0.0461368 0.0338514 
36 1 1 9.45307 26.5423 22.2593 -0.0640289 -0.0741058 0.0349195 
37 1 1 9.86532 27.0046 21.6575 -0.0454683 0.141812 -0.0228428 
38 1 1 9.58767 25.6805 22.3157 -0.110781 -0.178135 -0.115828 
39 1 1 9.61863 27.7885 21.4051 0.104441 0.0780414 0.114708 
40 1 1 9.33524 28.4171 21.0986 -0.201367 0.0135178 -0.0715583 
41 1 1 8.92016 29.1165 20.565 3.54555e-05 -0.101728 0.00921954 
42 1 1 4.24307 29.1253 21.1467 -0.00806741 -0.010777 0.0604848 
43 1 1 3.67553 28.4683 21.4856 -0.0512585 -0.113473 -0.0152912 
44 1 1 3.88246 27.9911 22.0737 -0.0221495 0.0907684 -0.0138014 
45 1 1 4.13804 27.4745 22.5563 0.057787 0.0203268 -0.0999023 
46 1 1 4.05579 26.76 22.8162 0.0480532 -0.109049 0.142122 
47 1 1 4.17312 25.9811 23.0551 -0.0560841 0.104235 0.0136201 
48 1 1 5.10861 25.7268 23.4134 0.0585693 0.104601 -0.114999 
49 1 1 6.10085 25.4556 23.5652 -0.0214426 0.104662 -0.099579 
50 1 1 6.96255 25.1992 23.5224 -0.0985 0.115571 -0.0290246 
51 1 1 9.02029 25.1628 22.7543 -0.0143624 -0.0102531 0.0112529 
52 1 1 7.76574 24.9324 23.3288 0.0129742 -0.0343219 -0.0504937 
53 1 1 8.45966 24.8469 23.0451 -0.0610764 0.152797 -0.012975 
54 1 1 4.44752 29.557 20.5731 0.0212389 -0.0228118 0.109498 
55 1 1 3.55948 29.1627 20.3289 0.170044 -0.0198439 -0.169809 
56 1 1 5.0858 29.876 20.3538 -0.0192604 0.054228 -0.0990308 
57 1 1 5.8415 30.1557 19.9203 0.0374439 -0.065662 -0.0370722 
58 1 1 4.51109 29.9132 19.6316 0.0129257 -0.0741606 0.0494451 
59 1 1 6.76411 30.2328 19.5978 -0.0252266 0.0981706 -0.102807 
60 1 1 8.34618 29.7052 19.9517 -0.0646685 0.323268 -0.127198 
61 1 1 7.59564 30.1284 19.3308 0.0597707 0.0274019 -0.069056 
62 1 1 10.129 27.3736 21.0673 -0.0352241 -0.0986736 -0.0291588 
63 1 1 10.0621 26.1661 21.7553 -0.0289638 -0.0695146 -0.130532 
64 1 1 10.4325 26.6128 21.0792 0.110105 0.125538 -0.194215 
65 1 1 9.55955 24.7639 22.3074 0.0403578 -0.150026 0.00401957 
66 1 1 10.1334 25.2878 21.7707 0.107212 -0.129023 0.0139951 
67 1 1 10.0499 27.9124 20.6615 -0.0186039 0.0816459 0.102304 
68 1 1 9.69277 28.6512 20.1833 0.320628 -0.227929 -0.0653698 
69 1 1 9.14952 29.3234 19.6381 0.0201028 0.262939 -0.0841105 
70 1 1 3.39928 28.6621 20.9644 0.0311588 0.102341 0.118019 
71 1 1 3.12731 27.9685 21.4306 -0.112969 0.059763 0.0293377 
72 1 1 3.27666 27.1097 22.155 0.0307503 -0.0245826 0.0143193 
73 1 1 3.3486 26.1874 22.5244 -0.0325375 -0.0335625 -0.0103056 
74 1 1 3.59634 25.3854 22.7789 0.0929101 0.0239926 0.00441895 
75 1 1 4.41538 25.0816 23.194 0.105903 0.135366 -0.0431258 
76 1 1 5.3761 24.7783 23.4498 0.118988 0.123945 -0.0346023 
77 1 1 6.34274 24.5083 23.4958 -0.0489187 -0.00765396 0.0178151 
78 1 1 7.13531 24.2404 23.3685 -0.219239 0.03196 0.0595882 
79 1 1 8.88594 24.3116 22.7132 0.0416998 0.163615 -0.0247962 
80 1 1 8.01262 23.9752 23.0551 0.0557945 -0.0757476 -0.200418 
81 1 1 9.41876 23.8718 22.177 0.112163 0.0204137 0.11338 
82 1 1 2.81864 28.6391 20.0538 0.137709 0.0802448 -0.1281 
83 1 1 3.80828 29.5721 19.6247 0.0132855 -0.0405909 0.0893884 
84 1 1 3.18638 29.1372 19.6254 -0.0307351 -0.244694 -0.135672 
85 1 1 5.05288 30.1342 19.4077 -0.00387808 -0.0116757 -0.127649 
86 1 1 5.94149 30.331 19.0074 -0.00298097 0.0829962 -0.0992926 
87 1 1 4.35598 29.9614 18.9009 -0.0826722 -0.0346378 0.00558295 
88 1 1 6.87516 30.3283 18.6332 0.000657962 -0.130779 -0.0751477 
89 1 1 8.48998 29.8339 18.9769 -0.00485404 -0.181875 -0.104429 
90 1 1 7.66764 30.1618 18.3053 0.0815568 -0.0948746 0.117908 
91 1 1 10.6053 27.2506 20.2569 -0.147498 -0.00661993 -0.0257988 
92 1 1 10.5795 25.8037 21.1066 -0.176661 0.0957949 0.116939 
93 1 1 10.8732 26.3005 20.3444 -0.00762742 -0.118165 0.0581998 
94 1 1 10.0877 24.3831 21.6754 -0.192273 0.050264 0.0167107 
95 1 1 10.6109 24.9336 21.0546 -0.0648026 -0.19923 0.0717774 
96 1 1 10.3364 28.061 19.7389 0.202244 -0.0153764 0.0586663 
97 1 1 9.85712 28.8011 19.2599 0.0176607 0.00784162 -0.303298 
98 1 1 9.20375 29.4262 18.5792 -0.0264054 0.170018 -0.00547689 
99 1 1 2.66606 28.0733 20.6904 -0.127699 -0.153648 -0.0777844 
100 1 1 2.50816 27.2176 21.2588 -0.0134134 0.0168776 0.0169176 
101 1 1 2.57052 26.3542 21.7564 -0.0371619 0.119559 0.176695 
102 1 1 2.76831 25.4708 22.1126 -0.139347 0.111942 -0.0271022 
103 1 1 3.86511 24.6319 22.8775 0.0293112 0.0587773 -0.172736 
104 1 1 3.25175 24.6983 22.4807 0.12915 0.042286 -0.105944 
105 1 1 4.62045 24.053 23.0949 -0.122704 -0.0982126 0.0797829 
106 1 1 5.72227 23.8491 23.3003 -0.046826 0.00167795 -0.020387 
107 1 1 6.58464 23.5941 23.237 0.079502 0.127915 0.114911 
108 1 1 7.24502 23.4567 23.0924 -0.143629 -0.0248014 -0.0124613 
109 1 1 9.94147 23.4567 21.5208 0.0233303 0.121552 0.105423 
110 1 1 8.62895 23.4175 22.5396 -0.0687267 -0.00743579 -0.0826778 
111 1 1 7.7495 23.0388 22.7495 0.0642055 -0.124539 0.0310913 
112 1 1 9.2249 22.9539 21.9317 0.0221929 0.0341494 0.0815964 
113 1 1 2.70698 28.799 19.1518 -0.111417 -0.161083 -0.10434 
114 1 1 2.30479 28.1303 19.7704 0.0855595 -0.0106844 -0.0721183 
115 1 1 3.39324 29.4366 18.6453 -0.0387468 0.0685835 0.0506501 
116 1 1 2.73962 28.863 18.2055 0.0192171 -0.148799 0.0385749 
117 1 1 5.06702 30.2089 18.4301 -0.109693 -0.069136 -0.164867 
118 1 1 6.00324 30.3225 17.9996 -0.0824993 -0.0310214 -0.0353336 
119 1 1 4.23111 29.874 17.9261 -0.216756 0.0242626 0.0175074 
120 1 1 6.95512 30.2314 17.6393 -0.251378 -0.0735472 -0.0922317 
121 1 1 8.49042 29.8106 17.9569 -0.107342 0.129059 0.0524164 
122 1 1 7.64885 30.0213 17.3595 0.0577114 0.0215556 0.0301895 
123 1 1 10.8254 27.366 19.2483 -0.142116 0.0134923 0.0783123 
124 1 1 10.9864 26.7185 19.6396 -0.216165 -0.00556326 -0.0419041 
125 1 1 10.9687 25.5008 20.3386 0.0667398 -0.0870448 -0.167667 
126 1 1 11.1456 26.0607 19.5547 -0.0936843 0.016894 -0.100543 
127 1 1 10.519 23.9693 20.9885 0.0905387 0.0529902 0.0543807 
128 1 1 10.96 24.4523 20.3375 -0.00531766 0.00132865 0.149784 
129 1 1 10.4213 23.093 20.8596 -0.0219406 -0.0220519 -0.140824 
130 1 1 9.1473 29.3533 17.607 -0.0718893 -0.023051 0.267652 
131 1 1 10.4659 28.1055 18.8482 -0.134102 0.05875 -0.0721056 
132 1 1 9.85563 28.8292 18.0345 0.0851654 0.0837363 -0.0875162 
133 1 1 2.07148 27.3802 20.3343 0.0695154 0.0438146 0.0800739 
134 1 1 2.04931 26.549 20.932 -0.038746 0.117079 -0.190714 
135 1 1 2.69948 24.5863 21.9564 0.0896501 -0.0369223 0.074463 
136 1 1 2.14779 25.7499 21.3364 0.0467657 -0.0662024 0.104245 
137 1 1 2.2439 24.9487 21.4714 -0.0220188 -0.044354 -0.0317258 
138 1 1 3.71291 23.9193 22.5999 -0.093117 0.0681707 -0.0985527 
139 1 1 3.00495 23.9964 22.0772 0.0512718 -0.00365376 -0.057149 
140 1 1 4.28141 23.1933 22.5971 -0.0777828 0.0531929 0.00672696 
141 1 1 5.24035 23.1547 22.9296 0.0974523 0.0490874 0.154232 
142 1 1 6.01388 23.1709 23.0548 -0.0358098 0.00837631 -0.0413808 
143 1 1 6.81437 22.7474 22.7993 0.0306697 -0.0661535 0.00448154 
144 1 1 9.76902 22.5543 21.3273 -0.0274647 0.00316784 -0.105754 
145 1 1 8.3606 22.6334 22.2814 -0.0951124 -0.026292 -0.00935001 
146 1 1 7.66778 22.4356 22.4358 0.130653 0.0407091 -0.125189 
147 1 1 8.99711 22.1043 21.6785 -0.188386 -0.0327298 -0.0525844 
148 1 1 2.21806 28.255 18.7623 0.0449727 -0.00821179 -0.0341038 
149 1 1 1.82492 27.4732 19.3373 0.0347296 0.116457 -0.0959819 
150 1 1 3.4745 29.3637 17.5356 0.0520401 0.0331858 -0.0504979 
151 1 1 2.22284 28.1923 17.9044 0.086551 -0.0276765 -0.131974 
152 1 1 2.82469 28.6949 17.193 -0.10443 0.109203 0.148914 
153 1 1 5.1281 30.0988 17.4585 -0.0443335 -0.00739036 -0.0915242 
154 1 1 6.08252 30.1272 17.0589 0.00696685 -0.0402759 -0.0333061 
155 1 1 4.3066 29.6994 17.0612 -0.0344045 -0.0577854 0.0663704 
156 1 1 7.03838 29.944 16.7059 0.0302868 -0.140195 -0.0288732 
157 1 1 8.42455 29.6206 17.0426 0.0446703 -0.0123937 0.137124 
158 1 1 7.73698 29.7484 16.6479 -0.0758071 0.0301171 -0.0192729 
159 1 1 10.8424 27.4388 18.5216 0.138774 -0.127406 -0.0218621 
160 1 1 11.1376 26.594 18.732 0.0963507 0.197676 0.201729 
161 1 1 11.3334 25.6382 18.8751 -0.232188 0.153406 0.194449 
162 1 1 11.2749 25.0122 19.5136 0.0452431 0.0986505 -0.0231944 
163 1 1 10.9164 23.5385 20.2789 -0.0254192 -0.0870999 -0.031084 
164 1 1 11.2156 24.0067 19.7645 0.102621 -0.0106125 -0.160718 
165 1 1 10.3367 22.2143 20.6543 0.190514 0.131452 0.12556 
166 1 1 10.7806 22.7908 20.3072 0.0689564 -0.0992391 -0.187864 
167 1 1 9.53651 28.8966 17.157 0.0571893 -0.0920343 -0.0508825 
168 1 1 8.95327 29.1844 16.745 0.0780836 -0.0535544 -0.0203208 
169 1 1 10.5575 27.89 17.9113 -0.07868 -0.0126222 0.123733 
170 1 1 10.1059 28.2818 17.1744 0.0978547 -0.0749406 0.296492 
171 1 1 1.64035 26.6084 19.9115 0.00778422 0.00264535 0.112445 
172 1 1 1.65721 25.8057 20.3865 -0.189153 0.0317198 -0.0325312 
173 1 1 2.45014 24.1152 21.5115 0.272318 0.00624005 -0.033182 
174 1 1 1.76724 25.0209 20.6623 -0.0628429 -0.0515251 -0.0125649 
175 1 1 2.03644 24.3725 20.9942 -0.0718796 0.126426 0.00185109 
176 1 1 2.75158 23.387 21.4907 -0.091449 0.131807 0.0122564 
177 1 1 3.45811 23.2309 22.0907 -0.0389032 -0.188316 -0.0125752 
178 1 1 4.03575 22.5068 21.9927 -0.0167083 0.071679 -0.0102715 
179 1 1 4.92122 22.4775 22.4137 -0.0576777 -0.182164 0.0123852 
180 1 1 5.85849 22.5586 22.6861 -0.00749069 -0.0603521 0.0980609 
181 1 1 6.35793 22.0018 22.3448 0.137217 -0.00458885 -0.0337674 
182 1 1 7.04008 21.933 22.2671 -0.254132 -0.0454013 -0.0294694 
183 1 1 9.60971 21.6301 21.0529 -0.0628858 0.0186187 0.120202 
184 1 1 10.289 21.4739 20.423 0.117841 0.067029 0.0702561 
185 1 1 8.034 21.7617 21.9396 0.0626682 -0.0687074 -0.0447049 
186 1 1 8.83619 21.3929 21.4086 -0.0194997 0.152825 -0.174205 
187 1 1 1.77012 27.4903 18.3875 0.0455172 -0.0704447 0.0188689 
188 1 1 1.47618 26.6604 18.9243 -0.0224864 -0.0343889 -0.216619 
189 1 1 3.63209 29.1655 16.7029 -0.0281137 -0.001825 -0.144542 
190 1 1 3.22339 28.5896 16.2926 0.215861 -0.108543 -0.112976 
191 1 1 1.88336 27.525 17.6215 0.0492967 -0.00192967 -0.0913015 
192 1 1 2.23208 27.9072 17.1338 0.0135319 0.0261373 0.0775609 
193 1 1 2.67078 28.1266 16.5038 -0.0357028 -0.020971 -0.102589 
194 1 1 5.23454 29.8065 16.5287 -0.0979941 -0.174059 0.0386797 
195 1 1 6.16988 29.7384 16.1476 -0.00843531 0.0708134 -0.0855633 
196 1 1 4.51779 29.3574 16.1377 0.0143474 -0.0543465 -0.14732 
197 1 1 7.2371 29.4734 15.8807 -0.0371653 0.105202 -0.173864 
198 1 1 8.2086 29.3129 16.1747 -0.104192 0.146849 0.0897237 
199 1 1 10.9422 27.0807 17.9037 -0.225613 0.0101185 0.103717 
200 1 1 11.1515 26.4428 17.7666 0.134308 -0.0623725 -0.0321859 
201 1 1 11.3633 25.7789 18.1996 -0.0317346 -0.0441451 0.00815192 
202 1 1 11.506 24.963 18.5285 -0.0150436 -0.0996702 0.00925925 
203 1 1 11.5234 24.0335 18.9464 0.221522 -0.00807114 -0.0759247 
204 1 1 11.3191 23.055 19.479 -0.0292005 0.0634483 -0.00823631 
205 1 1 10.9547 21.9623 19.8402 0.169084 0.0863738 0.0882356 
206 1 1 9.53341 28.5467 16.4802 0.00678006 0.070331 -0.119087 
207 1 1 8.83591 28.7275 15.8836 0.11333 -0.0524127 -0.0145653 
208 1 1 10.5681 27.5014 17.1011 -0.0603365 0.0101486 -0.0868936 
209 1 1 10.0306 27.8377 16.3544 -0.0931826 0.011385 0.145591 
210 1 1 1.38706 25.7901 19.4359 0.0744337 0.011011 0.0034603 
211 1 1 1.45128 25.0175 19.7641 0.00288385 0.136689 -0.0702233 
212 1 1 2.17918 23.6609 20.8411 -0.0245187 0.0149181 -0.190534 
213 1 1 1.69826 24.1329 20.1026 0.0679889 -0.00638496 0.12574 
214 1 1 2.55644 22.8881 20.7805 -0.156551 0.00166271 0.10957 
215 1 1 3.23634 22.6451 21.4424 -0.023374 -0.0679592 -0.0973141 
216 1 1 10.606 20.9721 19.921 0.169613 0.048998 -0.0790328 
217 1 1 9.85683 20.7794 20.4887 0.0358156 -0.0599215 0.164499 
218 1 1 3.75699 21.9158 21.273 -0.0955265 -0.0597053 -0.0646422 
219 1 1 4.55656 21.7863 21.7148 0.149946 -0.0879869 -0.150606 
220 1 1 5.53881 21.7612 22.0712 -0.0740257 -0.151122 0.0259008 
221 1 1 6.45567 21.3562 21.921 -0.316064 0.233795 0.138837 
222 1 1 7.26542 21.1163 21.7349 0.0510893 -0.0641712 0.0288645 
223 1 1 9.07848 20.8123 20.9881 -0.0325074 -0.0187261 0.167468 
224 1 1 8.20584 20.8425 21.3663 -0.166239 -0.128118 0.0699591 
225 1 1 1.30812 25.7501 18.5129 -0.140684 0.213682 0.0610525 
226 1 1 1.51284 26.633 17.8266 0.175703 -0.0974053 0.112611 
227 1 1 3.96455 28.7865 15.7626 0.154832 0.0138707 0.0694836 
228 1 1 3.45509 28.2551 15.6371 -0.094502 0.180289 0.106624 
229 1 1 2.90777 27.8909 15.8926 0.0173415 -0.0129648 -0.00055514 
230 1 1 1.88908 27.0892 16.9453 0.000534228 0.0960983 -0.0152814 
231 1 1 2.35746 27.5252 16.3657 0.0215487 0.158663 0.00998442 
232 1 1 5.38087 29.3413 15.6776 0.0766382 -0.0101194 0.19755 
233 1 1 6.2329 29.1775 15.3346 -0.0693183 -0.0799173 -0.105835 
234 1 1 4.79606 28.8498 15.3106 -0.0139696 0.171868 -0.0283264 
235 1 1 7.00702 28.8045 15.0104 -0.0570512 -0.170261 0.0154126 
236 1 1 7.96348 28.8711 15.4217 0.0421574 0.0940646 -0.0756759 
237 1 1 10.9383 26.7159 17.1155 -0.0835691 0.0591021 0.111313 
238 1 1 11.3073 25.7961 17.1403 -0.00327266 0.0799708 -0.0541989 
239 1 1 11.5881 24.9632 17.667 0.0338767 0.157738 0.111127 
240 1 1 11.7252 24.0595 18.1088 0.0333144 -0.125883 -0.00781158 
241 1 1 11.7173 23.1323 18.5271 -0.0403244 0.0816381 -0.0597245 
242 1 1 11.5502 22.1592 18.9234 -0.0630824 0.0392744 0.0513083 
243 1 1 11.2497 21.19 19.2239 -0.0334784 -0.0348182 0.0216365 
244 1 1 9.34901 28.0815 15.6933 0.0450947 0.137999 0.0134786 
245 1 1 8.55097 28.2199 15.1427 -0.0376315 0.0249848 0.0904001 
246 1 1 10.5088 26.9972 16.274 -0.119629 -0.105391 -0.0448036 
247 1 1 9.89939 27.3116 15.593 0.30852 0.0136781 -0.0200047 
248 1 1 1.3233 24.9545 18.9264 -0.131633 0.0413094 -0.130232 
249 1 1 1.44446 24.3596 19.2499 -0.0610239 -0.0553674 0.16495 
250 1 1 2.01844 23.2263 20.0336 0.0687216 0.131673 5.19039e-05 
251 1 1 1.64575 23.6484 19.232 -0.142738 -0.0670272 0.158835 
252 1 1 2.45566 22.3631 19.9703 0.160593 -0.0293317 -0.041078 
253 1 1 3.05123 22.1005 20.685 0.0961299 0.112685 0.149768 
254 1 1 10.8578 20.216 19.3831 0.00270165 0.0420984 0.0830336 
255 1 1 10.132 20.0944 19.978 -0.0665022 -0.10243 0.063946 
256 1 1 9.28916 20.0231 20.4778 -0.0307704 0.208948 0.14933 
257 1 1 3.56618 21.3747 20.5911 0.0545236 0.135235 0.0440271 
258 1 1 4.29015 21.197 21.0662 0.239174 0.0230348 0.0171354 
259 1 1 4.95052 21.186 21.4371 -0.010277 -0.0198484 0.0539847 
260 1 1 5.74244 20.8124 21.4381 -0.100537 0.164162 0.0465422 
261 1 1 6.54504 20.5079 21.3581 0.0224482 -0.0038842 -0.0102678 
262 1 1 7.49065 20.3006 21.203 0.00704038 -0.0046345 0.173961 
263 1 1 8.39358 20.0926 20.8844 -0.0634956 0.135005 0.138461 
264 1 1 1.31806 25.0433 18.1983 0.0131075 0.0919608 -0.0581553 
265 1 1 1.39012 25.5624 17.6118 0.0379532 -0.016879 0.0330801 
266 1 1 1.66336 26.1851 16.8684 0.122761 0.0462578 0.0385477 
267 1 1 4.20395 28.1499 14.9784 0.0120443 -0.0339171 -0.138608 
268 1 1 3.35913 27.6214 15.2071 0.149885 0.0938939 -0.0861891 
269 1 1 2.68948 27.1974 15.6255 -0.138764 -0.0421779 0.095169 
270 1 1 2.10907 26.7065 16.1823 -0.219437 -0.148617 -0.037372 
271 1 1 5.56204 28.7251 14.9374 0.0435184 -0.0790659 0.0176855 
272 1 1 6.27692 28.6371 14.7872 -0.0794818 0.201115 0.00620095 
273 1 1 5.05499 28.3093 14.72 -0.0472669 -0.00330007 0.0114573 
274 1 1 6.72753 28.1689 14.4503 -0.0282262 0.0684662 -0.102879 
275 1 1 7.66476 28.2498 14.7229 0.136362 0.13682 -0.166422 
276 1 1 10.9298 26.1875 16.2366 0.125026 0.0428943 -0.0283541 
277 1 1 11.2428 25.4786 16.1617 -0.0341501 -0.0249856 -0.174998 
278 1 1 11.5756 24.8655 16.6248 -0.055987 -0.0127592 0.091813 
279 1 1 11.8125 24.147 17.1353 0.0543557 0.0292097 -0.0312539 
280 1 1 11.943 23.2694 17.5958 0.0147284 -0.201001 0.0886411 
281 1 1 11.9274 22.3699 18.0291 -0.133819 -0.0685179 -0.171454 
282 1 1 11.7661 21.3947 18.4134 -0.155767 -0.160911 0.225682 
283 1 1 11.483 20.3809 18.6808 -0.0615172 0.215607 0.108297 
284 1 1 9.19071 27.5022 15.0091 -0.023485 0.0126594 -0.0709801 
285 1 1 8.41417 27.5481 14.5122 -0.0271726 -0.129285 0.062171 
286 1 1 10.4021 26.5239 15.5092 -0.0214878 0.0789231 -0.0567766 
287 1 1 9.72431 26.8002 14.88 -0.141962 0.131269 0.0827054 
288 1 1 1.45052 24.1342 18.4049 -0.0569449 0.0307045 -0.106968 
289 1 1 1.97154 22.8428 19.2568 0.0151744 0.15032 -0.0681659 
290 1 1 1.72444 23.239 18.687 0.0406124 -0.180843 -0.0558685 
291 1 1 11.0863 19.4121 18.8508 0.0333622 0.0924099 -0.135978 
292 1 1 2.38332 21.9082 19.1802 0.0603231 -0.0100841 0.0689995 
293 1 1 2.90813 21.5805 19.9162 -0.0277529 -0.032118 -0.100425 
294 1 1 10.368 19.3078 19.4515 -0.0496429 -0.0510142 -0.053082 
295 1 1 9.52773 19.2626 19.9672 0.123743 0.0374579 -0.00358111 
296 1 1 8.65651 19.3276 20.3686 -0.0184094 -0.198618 0.2101 
297 1 1 3.44804 20.8067 19.8962 -0.0784142 -0.120142 -0.0843275 
298 1 1 3.99743 20.8011 20.4866 -0.143153 -0.0814806 -0.0787283 
299 1 1 4.89139 20.4193 20.801 0.224688 -0.106173 0.0796028 
300 1 1 5.82855 19.9862 20.859 0.112128 0.115245 0.256922 
301 1 1 6.76045 19.7201 20.8442 -0.0029616 0.1746 -0.0244391 
302 1 1 7.71621 19.485 20.6702 -0.0427859 0.111582 -0.195615 
303 1 1 1.97622 25.7931 16.0828 0.0331314 0.0402188 0.00176361 
304 1 1 1.44112 24.6689 17.5831 -0.0593864 0.0603299 -0.0246176 
305 1 1 1.61895 25.2291 16.799 -0.0150739 0.0132393 0.0536919 
306 1 1 4.83662 27.69 14.3862 0.216179 -0.0449717 -0.138292 
307 1 1 3.95712 27.3097 14.5979 -0.128742 -0.0323983 0.130242 
308 1 1 3.16819 26.8538 14.9609 0.153406 -0.0160974 -0.114833 
309 1 1 2.49962 26.344 15.4627 -0.170858 0.0723378 -0.155804 
310 1 1 5.77155 27.9794 14.3358 -0.0531454 0.143567 -0.0814887 
311 1 1 6.5653 27.5047 13.9947 0.122732 -0.0210004 -0.0600227 
312 1 1 7.45642 27.4882 14.1003 -0.0105758 0.0723121 -0.00497042 
313 1 1 10.8654 25.6718 15.3871 0.0569859 0.0936069 0.0410785 
314 1 1 11.3775 24.8986 15.6938 0.11141 -0.0987306 0.0263442 
315 1 1 11.785 24.1123 16.1572 -0.118781 0.0588234 0.0737717 
316 1 1 12.0369 23.3298 16.6029 -0.0213169 -0.0928234 0.101351 
317 1 1 12.1662 22.453 17.0632 -0.0326095 0.14443 0.0256273 
318 1 1 12.1512 21.5531 17.4962 0.0526199 0.00937863 -0.128673 
319 1 1 11.9873 20.5378 17.8834 -0.144219 -0.0374349 -0.131692 
320 1 1 11.7072 19.5571 18.147 0.0169425 0.259366 -0.123611 
321 1 1 9.02608 26.8864 14.3456 0.0220158 0.015546 0.0210277 
322 1 1 8.34745 26.9628 14.0164 0.125558 -0.1698 -0.218404 
323 1 1 10.207 26.051 14.7156 -0.0123567 -0.165958 0.112803 
324 1 1 9.5738 26.3598 14.3232 0.0860943 0.155104 0.112236 
325 1 1 1.59111 23.8699 17.4661 0.0278517 -0.0790629 0.0201664 
326 1 1 1.67521 23.3187 17.8717 0.0916204 0.0893438 0.0863886 
327 1 1 1.97115 22.4243 18.3573 0.0866701 0.219335 -0.0557593 
328 1 1 2.37924 21.4931 18.5231 0.108063 0.0746789 -0.0289158 
329 1 1 11.3197 18.6158 18.3172 0.161919 0.054077 0.0930666 
330 1 1 10.5939 18.4951 18.9188 -0.0824948 -0.119357 0.122866 
331 1 1 2.83389 21.0221 19.1173 0.0949143 0.00300169 -0.0351134 
332 1 1 9.75236 18.4461 19.4348 0.0172818 -0.262656 -0.0596271 
333 1 1 8.8819 18.5116 19.8368 0.00791324 0.11631 0.0443587 
334 1 1 7.94174 18.6697 20.138 -0.0079159 0.0768434 0.161259 
335 1 1 3.40433 20.3004 19.3079 0.221915 0.046869 -0.0323428 
336 1 1 4.15417 20.0269 19.9284 -0.11947 -0.133395 0.0543186 
337 1 1 5.111 19.5406 20.2132 -0.0330699 -0.0716738 0.131229 
338 1 1 6.04168 19.223 20.3621 -0.164294 -0.0189894 0.106041 
339 1 1 6.98651 18.9032 20.3119 -0.0116848 -0.0547366 0.0820281 
340 1 1 5.20823 27.2467 14.0179 -0.060571 0.0769813 0.0470395 
341 1 1 2.43006 25.4511 15.295 -0.134514 0.0684958 0.0674886 
342 1 1 2.01169 24.8826 15.8905 -0.0149501 0.137164 -0.162828 
343 1 1 1.72174 24.2383 16.6584 -0.0504307 0.0746708 -0.0828958 
344 1 1 4.54883 26.9252 14.0911 0.112663 -0.0529928 0.0316506 
345 1 1 3.73959 26.4081 14.3141 -0.00611931 0.0657768 -0.16661 
346 1 1 3.00962 25.9554 14.759 -0.0260068 -0.0785338 -0.0344806 
347 1 1 2.87114 25.0849 14.6123 -0.174281 -0.159349 0.142059 
348 1 1 5.99667 27.1629 13.8048 0.00404437 -0.0601816 -0.0551919 
349 1 1 6.81791 26.8855 13.595 -0.0596925 0.101817 -0.156064 
350 1 1 7.77478 26.5468 13.5017 0.154763 0.141637 0.00590367 
351 1 1 10.5727 25.3891 14.5399 0.0956552 -0.0617969 0.101544 
352 1 1 11.0944 24.8198 14.8176 0.0839908 0.0609361 -0.0118636 
353 1 1 11.5983 24.109 15.1876 0.0371296 -0.0548392 0.0623032 
354 1 1 11.9867 23.3537 15.606 -0.00356855 -0.0400511 -0.108989 
355 1 1 12.2602 22.5138 16.0709 0.0846126 0.126357 -0.0340513 
356 1 1 12.3903 21.6369 16.5311 0.0757304 0.00425326 -0.0226577 
357 1 1 12.3757 20.7357 16.9645 -0.0495861 0.12747 0.0424653 
358 1 1 12.2133 19.7244 17.3501 0.0648849 -0.126927 0.0598697 
359 1 1 11.9415 18.7248 17.6 0.151973 -0.0618948 -0.149067 
360 1 1 8.8355 26.1774 13.6401 0.0123575 -0.0105773 -0.230754 
361 1 1 9.85074 25.5605 13.8537 -0.0404547 0.0135688 -0.0751069 
362 1 1 1.76853 23.2815 16.9868 0.000508269 0.0693884 -0.206808 
363 1 1 1.90126 22.5024 17.3388 -0.0622318 0.0544023 0.0324177 
364 1 1 2.19643 21.5691 17.709 0.0461128 -0.0499652 0.00337734 
365 1 1 2.5846 20.8436 18.1897 0.0958371 -0.00875184 0.151135 
366 1 1 11.532 17.7679 17.7881 0.063334 0.0492194 -0.0435792 
367 1 1 10.831 17.6833 18.3788 0.148265 -0.0189795 -0.00582508 
368 1 1 9.98351 17.6297 18.897 0.0146397 0.0539506 -0.0276982 
369 1 1 3.07917 20.1616 18.5681 0.0513274 -0.0016232 -0.0378301 
370 1 1 9.10644 17.6953 19.3028 0.216886 -0.174906 -0.157208 
371 1 1 8.16687 17.8534 19.6054 0.081272 -0.0233444 -0.100115 
372 1 1 7.21188 18.0882 19.7798 -0.0775567 0.154469 0.068509 
373 1 1 3.71537 19.6347 19.056 -0.1012 -0.0146508 -0.103008 
374 1 1 4.47794 19.1727 19.4513 0.0512583 -0.0807093 0.0408862 
375 1 1 5.33276 18.769 19.7168 -0.0376821 -0.0654379 -0.0121535 
376 1 1 6.26564 18.4073 19.8302 0.00351206 0.224029 -0.0228639 
377 1 1 5.24472 26.4569 13.5606 -0.0236668 0.130768 0.0378589 
378 1 1 2.40104 24.5471 15.1319 0.0811174 -0.0504452 0.0859833 
379 1 1 2.08394 24.1438 15.6891 -0.0141118 -0.0258948 0.00420519 
380 1 1 1.99389 23.3285 15.9941 0.0860291 0.0858292 0.0453455 
381 1 1 4.31732 25.9903 13.74 -0.158088 0.185779 0.159616 
382 1 1 3.54159 25.5524 14.0981 0.0153954 0.0574948 -0.0226003 
383 1 1 3.31777 24.6452 13.9582 0.0162299 0.0127678 0.202522 
384 1 1 2.7911 24.3719 14.5038 0.00742062 0.0554866 -0.000185219 
385 1 1 6.22295 26.3475 13.2731 -0.0593459 0.012335 0.0395496 
386 1 1 7.18463 26.083 13.0802 0.0404014 0.00725908 -0.0363775 
387 1 1 8.13866 25.7387 13.0127 -0.0970826 -0.141448 -0.0383543 
388 1 1 10.5979 24.8337 13.9975 -0.0877319 -0.0984421 -0.168786 
389 1 1 11.2426 24.1209 14.2726 -0.0781257 0.0618827 0.0962989 
390 1 1 11.798 23.3487 14.662 -0.0096977 -0.01347 -0.0742005 
391 1 1 12.2104 22.5369 15.0742 -0.0606808 -0.00942322 -0.0791433 
392 1 1 12.4857 21.6964 15.5383 -0.00389407 0.122183 0.221477 
393 1 1 12.6162 20.8202 15.9994 0.15333 -0.079729 0.135067 
394 1 1 12.6013 19.9201 16.4326 0.060033 -0.0842039 0.0795275 
395 1 1 12.4448 18.9002 16.8061 0.171017 0.00902441 0.0575762 
396 1 1 12.1717 17.9227 17.0645 -0.282119 -0.187243 -0.145825 
397 1 1 9.10266 25.2956 13.0781 -0.144106 0.0854245 -0.121495 
398 1 1 9.98924 24.742 13.2421 -0.0149241 -0.0224675 -0.15641 
399 1 1 2.00292 22.5347 16.3306 0.110726 0.00045737 0.00156241 
400 1 1 2.1254 21.6862 16.8068 0.137737 -0.0134607 0.0557086 
401 1 1 2.39682 20.8338 17.209 -0.0673322 -0.0459886 -0.0385695 
402 1 1 11.7877 16.9957 17.24 -0.0971041 -0.091929 -0.00564434 
403 1 1 2.79775 20.0607 17.6699 -0.00949552 -0.0544481 -0.0352415 
404 1 1 11.0451 16.848 17.8475 0.164926 0.0856839 -0.125395 
405 1 1 10.2253 16.814 18.3563 -0.157827 0.0511343 0.120774 
406 1 1 9.33041 16.8796 18.7699 -0.138816 0.189255 -0.00321666 
407 1 1 3.33257 19.4004 18.1624 0.00526708 0.096531 0.0536321 
408 1 1 8.3907 17.0374 19.0715 0.040143 -0.0362416 -0.114469 
409 1 1 7.43597 17.2725 19.2473 -0.0613864 -0.0343058 -0.0191874 
410 1 1 6.49033 17.592 19.299 -0.0259769 0.128795 -0.0664695 
411 1 1 3.96811 18.8372 18.5802 0.0390806 0.110276 -0.0434559 
412 1 1 4.71412 18.3522 18.927 0.0308716 0.170475 -0.0937148 
413 1 1 5.54087 17.9296 19.156 0.0189588 -0.101089 0.124729 
414 1 1 4.78799 25.5785 13.2773 -0.104738 0.200407 -0.133176 
415 1 1 5.56683 25.5915 12.9687 -0.0132507 -0.163309 0.0803126 
416 1 1 2.40888 23.5425 14.961 0.0693429 0.127487 0.0228835 
417 1 1 2.25056 22.5955 15.3455 0.0405357 0.0327855 0.0537852 
418 1 1 4.08951 25.0647 13.452 0.0144135 -0.112778 0.0776112 
419 1 1 3.68908 24.2164 13.4261 -0.0124886 0.0649182 0.0527824 
420 1 1 3.05156 23.6264 13.9432 -0.0863817 0.0431006 0.0942347 
421 1 1 6.4483 25.5313 12.7407 0.0379086 0.0745013 -0.0166241 
422 1 1 7.4026 25.2947 12.5655 -0.157032 -0.141008 0.116429 
423 1 1 8.34882 24.9762 12.5161 0.123154 -0.0446671 -0.0176638 
424 1 1 10.7779 24.0618 13.4512 0.0629646 0.0761479 -0.0765721 
425 1 1 11.4498 23.331 13.7392 0.0432646 -0.0415575 0.00203261 
426 1 1 12.0225 22.5318 14.131 0.0688833 -0.037413 -0.0330369 
427 1 1 12.4358 21.7198 14.5413 -0.0792313 -0.0148882 -0.00517848 
428 1 1 12.7118 20.8799 15.0062 -0.0880763 -0.00991758 -0.0232283 
429 1 1 12.397 17.1272 16.5389 0.187026 0.0537276 -0.0185067 
430 1 1 12.8419 20.0029 15.4678 -0.170862 0.000637988 -0.0725404 
431 1 1 12.8271 19.103 15.8989 -0.00156469 -0.158816 -0.126033 
432 1 1 12.6705 18.0941 16.2752 0.0218962 0.0943431 0.0787438 
433 1 1 9.30512 24.5243 12.5729 0.0822216 -0.091727 0.121175 
434 1 1 10.2026 23.9264 12.7013 -0.0629768 0.168346 0.0146978 
435 1 1 2.22064 21.7471 15.8144 -0.0677551 0.0162392 -0.137487 
436 1 1 2.34984 20.8707 16.2748 -0.0881843 -0.0373083 -0.022597 
437 1 1 2.6245 20.0291 16.7395 0.039758 -0.0097411 -0.036955 
438 1 1 12.0256 16.1772 16.6944 0.0298023 0.0273081 -0.0159097 
439 1 1 11.2826 16.0459 17.3134 0.00683039 -0.0222184 0.0200603 
440 1 1 3.02227 19.2773 17.189 -0.148986 0.061766 0.111935 
441 1 1 10.4384 15.9926 17.8293 0.0870358 0.0593856 -0.141442 
442 1 1 9.55662 16.0631 18.2381 0.154507 -0.10115 0.0900335 
443 1 1 8.61628 16.2213 18.539 -0.18783 -0.0699216 0.0187292 
444 1 1 3.56396 18.5984 17.6583 0.00735166 0.0858812 0.0610378 
445 1 1 7.66154 16.4567 18.7132 0.111273 -0.069173 0.00203912 
446 1 1 6.71594 16.7753 18.7651 -0.16661 -0.0491806 0.0052739 
447 1 1 5.76969 17.1149 18.6266 0.0323684 0.0184946 0.0512155 
448 1 1 4.19773 18.0272 18.0606 0.0463722 -0.174731 -0.0381948 
449 1 1 4.93767 17.5318 18.3893 0.0498486 0.0526163 0.0402832 
450 1 1 4.88339 24.9311 12.8974 0.0962996 0.0230328 -0.0929202 
451 1 1 5.78916 24.8543 12.4816 0.0633002 0.120962 -0.0360305 
452 1 1 2.66205 22.6774 14.3692 0.212289 0.133644 0.312231 
453 1 1 2.4603 21.8315 14.8494 -0.0356884 0.0313805 0.0323718 
454 1 1 4.31626 24.2011 12.8981 0.0651277 0.110897 -0.0476106 
455 1 1 3.709 23.4973 13.1325 0.0123178 0.0609163 0.0157449 
456 1 1 3.21731 22.7268 13.4696 0.0959288 0.0636829 -0.119683 
457 1 1 6.67308 24.7149 12.2074 0.0803382 -0.106118 0.126837 
458 1 1 7.62855 24.4789 12.0334 0.0310869 0.0533355 0.0342419 
459 1 1 8.57363 24.1589 11.9844 -0.0794195 0.0383369 0.00424206 
460 1 1 10.9928 23.2552 12.9168 -0.112145 -0.162534 0.0499069 
461 1 1 11.6709 22.5172 13.2064 0.0967032 0.0680236 0.0475019 
462 1 1 12.2464 21.714 13.5915 -0.0329111 0.00656242 -0.0778027 
463 1 1 12.6614 20.9032 14.0097 -0.0758061 0.0364466 0.165281 
464 1 1 12.937 20.063 14.475 0.114694 0.0310459 0.0102773 
465 1 1 12.6215 16.3001 16.0044 0.019701 0.00888658 -0.0388883 
466 1 1 12.8939 17.2719 15.7462 0.146613 -0.105016 -0.241194 
467 1 1 13.0676 19.1856 14.934 -0.110683 0.10106 0.0963039 
468 1 1 13.0522 18.2865 15.367 -0.0525578 -0.101972 0.0130496 
469 1 1 9.56081 23.6822 12.035 -0.0576003 -0.206539 -0.00664317 
470 1 1 10.4323 23.1031 12.1669 0.113103 -0.0459701 0.245151 
471 1 1 2.44492 20.9311 15.2824 0.0236264 0.0301173 0.060592 
472 1 1 2.57461 20.0538 15.7424 -0.0518138 -0.141986 -0.0751591 
473 1 1 2.84919 19.2129 16.2072 0.189302 0.00394827 -0.110633 
474 1 1 12.2397 15.354 16.1691 -0.0529774 -0.165 0.00507855 