ITEM: TIMESTEP
100000000
ITEM: NUMBER OF ATOMS
94148
ITEM: BOX BOUNDS pp pp pp
0 62
0 62
0 62
ITEM: ATOMS id mol type x y z 
1 1 1 46.309 39.1076 1.07405 
2 1 1 46.7693 38.6846 0.412124 
3 1 1 46.0727 38.2606 0.965571 
4 1 1 46.5441 37.7895 0.372757 
5 1 1 45.7454 38.7162 1.7069 
6 1 1 45.9484 37.329 1.10172 
7 1 1 46.4972 36.7662 0.469261 
8 1 1 46.9625 39.6033 0.713459 
9 1 1 47.5188 39.1857 0.060333 
10 1 1 47.2883 38.2438 61.8532 
11 1 1 47.1431 37.3697 61.8578 
12 1 1 47.2605 36.5156 61.894 
13 1 1 46.5219 39.913 1.44869 
14 1 1 45.9989 39.4444 1.76102 
15 1 1 45.6394 39.2214 2.38292 
16 1 1 45.5242 37.8333 1.72481 
17 1 1 45.3047 38.3414 2.48099 
18 1 1 46.826 35.9854 0.273428 
19 1 1 46.2867 35.7432 0.902708 
20 1 1 45.8878 36.3634 1.25513 
21 1 1 45.4749 36.8761 1.78428 
22 1 1 46.8574 40.5469 1.78023 
23 1 1 47.3608 40.3132 0.991163 
24 1 1 47.8412 39.9682 0.261635 
25 1 1 48.3938 39.5606 61.7917 
26 1 1 48.1505 38.6883 61.4754 
27 1 1 48.0244 37.7342 61.3256 
28 1 1 47.4377 35.5539 61.975 
29 1 1 47.9492 36.8436 61.319 
30 1 1 48.0937 35.9812 61.5045 
31 1 1 46.1387 40.1743 2.40013 
32 1 1 45.6486 39.6779 3.026 
33 1 1 45.3496 38.892 3.2075 
34 1 1 45.1211 37.4357 2.62056 
35 1 1 45.0558 38.0636 3.41391 
36 1 1 46.9294 35.1712 0.575959 
37 1 1 46.5442 34.869 1.23561 
38 1 1 47.6322 34.7496 0.224951 
39 1 1 45.9745 35.422 1.6761 
40 1 1 45.5067 35.8793 2.15545 
41 1 1 45.0969 36.5307 2.83258 
42 1 1 46.8616 40.972 2.45841 
43 1 1 47.51 41.2689 1.96647 
44 1 1 47.7707 41.023 1.31186 
45 1 1 48.0702 40.6276 0.703795 
46 1 1 48.6875 40.4118 0.198045 
47 1 1 49.2703 40.0839 61.7223 
48 1 1 49.0522 39.0543 61.2581 
49 1 1 48.9042 38.1219 61.0809 
50 1 1 48.8426 37.2349 61.0454 
51 1 1 48.2562 35.1187 61.6659 
52 1 1 48.7993 36.3683 61.164 
53 1 1 48.7759 35.6023 61.3319 
54 1 1 46.4473 40.8464 3.0887 
55 1 1 47.1403 41.5691 3.27634 
56 1 1 45.9718 40.3043 3.39925 
57 1 1 45.5424 39.6379 3.80933 
58 1 1 46.2572 40.8786 4.04919 
59 1 1 45.2408 38.7681 4.10159 
60 1 1 44.9543 37.1228 3.5945 
61 1 1 45.066 37.8961 4.33144 
62 1 1 46.2689 34.6244 1.90946 
63 1 1 47.1702 34.4145 0.943156 
64 1 1 46.8593 34.1089 1.65224 
65 1 1 48.4605 34.3693 0.0640497 
66 1 1 47.8914 34.0141 0.64142 
67 1 1 45.7767 34.9944 2.42962 
68 1 1 45.3391 35.5521 3.11893 
69 1 1 45.0496 36.238 3.76853 
70 1 1 47.6035 41.7012 2.57485 
71 1 1 48.1982 41.7093 1.8395 
72 1 1 48.7935 41.228 0.945761 
73 1 1 49.521 40.8791 0.277286 
74 1 1 50.0926 40.4009 61.8599 
75 1 1 49.9134 39.5479 61.3744 
76 1 1 49.8449 38.5632 61.0551 
77 1 1 49.6524 37.5712 60.946 
78 1 1 49.6652 36.652 60.991 
79 1 1 49.0832 34.8676 61.5533 
80 1 1 49.6387 35.7235 61.179 
81 1 1 49.3918 34.2005 61.9089 
82 1 1 47.9923 42.1255 3.40196 
83 1 1 46.7971 41.4713 4.07238 
84 1 1 47.4517 41.8975 3.94899 
85 1 1 45.895 40.3031 4.35246 
86 1 1 45.5267 39.3841 4.73927 
87 1 1 46.4457 40.9031 4.83913 
88 1 1 45.2539 38.5487 5.06132 
89 1 1 45.0237 36.9441 4.57111 
90 1 1 45.2238 37.649 5.30016 
91 1 1 46.3214 34.1236 2.6019 
92 1 1 47.5142 33.647 1.46714 
93 1 1 47.0426 33.4879 2.29588 
94 1 1 48.827 33.6252 0.560369 
95 1 1 48.2276 33.359 1.23043 
96 1 1 45.8204 34.6691 3.28253 
97 1 1 45.3863 35.2833 4.02455 
98 1 1 45.1864 35.9965 4.8206 
99 1 1 48.4623 42.2305 2.59182 
100 1 1 49.1324 42.0303 1.78825 
101 1 1 49.7786 41.6697 1.03595 
102 1 1 50.4871 41.2168 0.419714 
103 1 1 50.6032 39.8932 61.5507 
104 1 1 50.9724 40.5335 61.8206 
105 1 1 50.7957 39.031 61.2023 
106 1 1 50.5615 37.9242 61.0048 
107 1 1 50.4313 36.989 61.0006 
108 1 1 50.4438 36.2304 61.0797 
109 1 1 49.732 33.4784 0.455924 
110 1 1 49.9689 34.8617 61.4642 
111 1 1 50.5688 35.5227 61.2933 
112 1 1 50.3711 34.1203 61.9854 
113 1 1 48.1363 42.1271 4.33362 
114 1 1 48.7641 42.452 3.52483 
115 1 1 47.3711 41.6317 4.92483 
116 1 1 48.2991 41.9593 5.24703 
117 1 1 46.0302 40.1303 5.28905 
118 1 1 45.747 39.2732 5.72007 
119 1 1 46.7563 40.7815 5.70712 
120 1 1 45.5301 38.2739 5.97648 
121 1 1 45.2922 36.6806 5.50107 
122 1 1 45.5787 37.4927 6.16339 
123 1 1 46.4024 33.8776 3.58406 
124 1 1 46.8054 33.4796 3.04749 
125 1 1 47.8139 33.0991 2.09645 
126 1 1 47.4139 33.0558 2.88499 
127 1 1 49.2022 32.9995 1.09338 
128 1 1 48.6893 32.7473 1.78657 
129 1 1 50.0966 32.9273 0.986402 
130 1 1 45.5924 35.889 5.77664 
131 1 1 45.9674 34.4564 4.15685 
132 1 1 45.6638 35.0929 5.15334 
133 1 1 49.4449 42.4516 2.69785 
134 1 1 50.0214 42.171 1.88443 
135 1 1 51.3412 41.0368 0.289518 
136 1 1 50.6164 41.8721 1.2655 
137 1 1 51.3159 41.5329 0.895713 
138 1 1 51.4151 39.8329 61.613 
139 1 1 51.8139 40.511 0.106476 
140 1 1 51.8009 38.9821 61.4818 
141 1 1 51.4606 38.1263 61.1881 
142 1 1 51.1263 37.3337 61.1025 
143 1 1 51.2564 36.4273 61.289 
144 1 1 50.7429 33.4385 0.46109 
145 1 1 50.9171 34.798 61.6184 
146 1 1 51.301 35.4692 61.4587 
147 1 1 51.2751 33.9937 0.0354857 
148 1 1 48.8745 42.4577 4.5601 
149 1 1 49.6108 42.6277 3.70597 
150 1 1 47.6669 41.339 5.87985 
151 1 1 49.121 42.2309 5.3249 
152 1 1 48.6342 41.602 6.14506 
153 1 1 46.426 39.9052 6.22818 
154 1 1 46.1102 39.0032 6.56702 
155 1 1 47.1663 40.4954 6.45192 
156 1 1 46.0158 37.9853 6.85219 
157 1 1 45.7732 36.5566 6.36873 
158 1 1 45.9806 37.1839 6.7982 
159 1 1 46.5107 33.7892 4.29727 
160 1 1 47.1466 33.1086 3.88433 
161 1 1 47.9338 32.6687 3.39894 
162 1 1 48.3642 32.5107 2.72568 
163 1 1 49.5526 32.437 1.63844 
164 1 1 49.1735 32.2182 2.2904 
165 1 1 50.9572 32.717 0.9941 
166 1 1 50.343 32.3502 1.41588 
167 1 1 46.0301 35.1993 5.96296 
168 1 1 46.135 35.8374 6.47395 
169 1 1 46.3647 34.172 5.01871 
170 1 1 46.4666 34.4923 5.85294 
171 1 1 50.332 42.5829 2.98361 
172 1 1 50.9483 42.2321 2.28152 
173 1 1 52.0574 41.056 0.661265 
174 1 1 51.5268 41.9246 1.70114 
175 1 1 52.0507 41.4952 1.28503 
176 1 1 52.5675 40.4127 0.512794 
177 1 1 52.2356 39.7321 61.9523 
178 1 1 52.6319 38.917 61.9404 
179 1 1 52.3028 38.0598 61.5084 
180 1 1 51.8566 37.3351 61.3607 
181 1 1 52.163 36.6056 61.5938 
182 1 1 52.0134 35.8266 61.601 
183 1 1 51.708 33.171 0.557542 
184 1 1 51.6681 32.4308 1.09115 
185 1 1 51.8801 34.8513 61.7547 
186 1 1 52.0694 33.9107 0.164426 
187 1 1 49.8425 42.5365 4.64365 
188 1 1 50.5257 42.5947 3.94949 
189 1 1 47.9431 40.9468 6.60582 
190 1 1 48.7045 40.9939 6.99706 
191 1 1 49.8871 42.243 5.39236 
192 1 1 49.5093 41.8626 5.98724 
193 1 1 49.2454 41.4475 6.63689 
194 1 1 46.902 39.5904 6.93804 
195 1 1 46.6452 38.6842 7.27785 
196 1 1 47.6424 40.0657 7.20201 
197 1 1 46.6259 37.5141 7.4613 
198 1 1 46.3783 36.5706 7.12173 
199 1 1 46.9781 33.4066 4.77235 
200 1 1 47.5837 32.9304 4.6939 
201 1 1 48.0007 32.5219 4.15226 
202 1 1 48.5822 32.1985 3.60354 
203 1 1 49.2899 31.8784 3.11418 
204 1 1 50.1039 31.8752 2.26457 
205 1 1 51.1189 31.8592 1.69437 
206 1 1 46.6101 35.0181 6.55107 
207 1 1 46.7935 35.7692 7.16054 
208 1 1 47.0114 33.8062 5.59579 
209 1 1 47.101 34.3501 6.53938 
210 1 1 51.2676 42.4551 3.26061 
211 1 1 51.8326 42.0973 2.61977 
212 1 1 52.703 41.1083 1.22564 
213 1 1 52.5335 41.6112 2.09326 
214 1 1 53.2316 40.3849 1.10414 
215 1 1 52.9933 39.6596 0.495859 
216 1 1 52.25 31.8679 1.35993 
217 1 1 52.5011 32.5901 0.859644 
218 1 1 53.3829 38.8959 0.538283 
219 1 1 53.1341 38.1158 0.0995489 
220 1 1 52.7935 37.211 61.7968 
221 1 1 52.7571 36.1992 61.8673 
222 1 1 52.7671 35.2635 61.9405 
223 1 1 52.6547 33.4837 0.431297 
224 1 1 52.8107 34.339 0.166865 
225 1 1 51.4685 42.3178 4.12255 
226 1 1 50.8205 42.3273 5.06198 
227 1 1 48.3785 40.3349 7.46537 
228 1 1 49.1146 40.6104 7.55519 
229 1 1 49.6618 41.0564 7.21621 
230 1 1 50.361 41.914 5.93414 
231 1 1 50.0393 41.5181 6.66304 
232 1 1 47.4673 39.1868 7.56863 
233 1 1 47.4269 38.2613 7.84338 
234 1 1 48.2482 39.4874 7.83289 
235 1 1 47.5224 37.3149 8.07698 
236 1 1 47.0836 36.5753 7.72829 
237 1 1 47.5977 33.1233 5.44849 
238 1 1 48.2328 32.4759 5.19512 
239 1 1 48.8615 31.9766 4.48616 
240 1 1 49.5072 31.6267 3.89538 
241 1 1 50.1984 31.4017 3.16294 
242 1 1 51.0127 31.3211 2.60656 
243 1 1 51.9082 31.3009 2.00986 
244 1 1 47.2082 35.1009 7.24788 
245 1 1 47.5824 35.824 7.78779 
246 1 1 47.5704 33.5453 6.29852 
247 1 1 47.6896 34.2114 7.13002 
248 1 1 52.0387 42.1272 3.46469 
249 1 1 52.564 41.7995 2.98817 
250 1 1 53.2524 40.9925 1.89186 
251 1 1 53.1996 41.3631 2.75476 
252 1 1 53.9041 40.2455 1.8243 
253 1 1 53.6574 39.5693 1.06843 
254 1 1 52.9384 31.3482 1.6266 
255 1 1 53.2007 32.0958 1.08961 
256 1 1 53.4315 32.9881 0.725237 
257 1 1 54.1867 38.8323 1.02222 
258 1 1 53.9346 38.1119 0.640889 
259 1 1 53.6405 37.4297 0.264101 
260 1 1 53.6841 36.561 0.251273 
261 1 1 53.6188 35.7103 0.273183 
262 1 1 53.6365 34.7934 0.318537 
263 1 1 53.5334 33.8834 0.435552 
264 1 1 52.2099 42.0451 4.22591 
265 1 1 51.8293 42.0075 4.93566 
266 1 1 51.3235 41.7636 5.8429 
267 1 1 49.1776 39.7794 8.07491 
268 1 1 49.9061 40.4781 7.7633 
269 1 1 50.4309 40.9931 7.31832 
270 1 1 50.8908 41.4626 6.65285 
271 1 1 48.0969 38.7004 8.0843 
272 1 1 48.0217 37.9207 8.22257 
273 1 1 48.81 38.934 8.2681 
274 1 1 48.3158 37.2409 8.46203 
275 1 1 47.9692 36.4548 8.23771 
276 1 1 48.1849 32.8521 6.20744 
277 1 1 48.7398 32.2741 6.11416 
278 1 1 49.0836 31.8057 5.51443 
279 1 1 49.5639 31.3717 4.89531 
280 1 1 50.2535 31.0864 4.11323 
281 1 1 50.944 30.8919 3.50744 
282 1 1 51.7916 30.7614 2.84434 
283 1 1 52.6966 30.7361 2.31006 
284 1 1 48.0006 34.8986 7.73338 
285 1 1 48.3708 35.5386 8.22321 
286 1 1 48.1921 33.4029 6.98578 
287 1 1 48.3794 34.0422 7.64849 
288 1 1 53.0025 41.6585 3.74857 
289 1 1 53.8527 40.8302 2.56429 
290 1 1 53.7405 41.151 3.27654 
291 1 1 53.7571 30.8421 1.88308 
292 1 1 54.5725 40.0902 2.34087 
293 1 1 54.4055 39.5215 1.70576 
294 1 1 54.0057 31.5826 1.37184 
295 1 1 54.1892 32.436 0.954836 
296 1 1 54.2844 33.3555 0.703757 
297 1 1 54.8792 38.7571 1.59707 
298 1 1 54.6552 38.166 1.05908 
299 1 1 54.491 37.2207 0.703694 
300 1 1 54.5116 36.2084 0.595523 
301 1 1 54.4821 35.3094 0.557962 
302 1 1 54.4509 34.3016 0.574592 
303 1 1 51.7909 41.2981 6.49601 
304 1 1 52.6406 41.6756 4.74958 
305 1 1 52.2087 41.5342 5.625 
306 1 1 49.5582 38.997 8.4781 
307 1 1 50.1231 39.7004 8.25268 
308 1 1 50.7484 40.3177 7.86649 
309 1 1 51.2778 40.8652 7.21165 
310 1 1 48.8895 38.0823 8.53334 
311 1 1 49.0937 37.1458 8.80956 
312 1 1 48.8827 36.3007 8.66871 
313 1 1 48.835 32.6022 6.96389 
314 1 1 49.3612 31.8554 6.43212 
315 1 1 49.8784 31.2096 5.74251 
316 1 1 50.4109 30.8332 5.1171 
317 1 1 51.0143 30.522 4.45848 
318 1 1 51.7536 30.3516 3.75163 
319 1 1 52.6745 30.1823 3.11223 
320 1 1 53.53 30.2306 2.57971 
321 1 1 48.7496 34.664 8.19918 
322 1 1 49.0876 35.2953 8.59128 
323 1 1 48.88 33.235 7.57597 
324 1 1 49.0358 33.8712 8.14657 
325 1 1 53.4032 41.3543 4.66097 
326 1 1 53.8764 41.0958 4.07987 
327 1 1 54.4449 40.6069 3.37092 
328 1 1 55.0827 39.9437 2.96823 
329 1 1 54.4862 30.2893 2.18356 
330 1 1 54.8284 31.0332 1.64175 
331 1 1 55.2543 39.3366 2.32956 
332 1 1 54.9642 31.8723 1.19749 
333 1 1 55.0363 32.7398 0.972152 
334 1 1 55.1755 33.7187 0.839773 
335 1 1 55.5651 38.5989 2.00183 
336 1 1 55.411 37.7601 1.4363 
337 1 1 55.2968 36.6681 1.12047 
338 1 1 55.2921 35.7134 0.874019 
339 1 1 55.3001 34.7666 0.778087 
340 1 1 49.817 38.3321 8.76617 
341 1 1 52.1542 40.571 7.07462 
342 1 1 52.6315 40.8841 6.39452 
343 1 1 53.1021 41.1913 5.55571 
344 1 1 50.4335 38.9394 8.64137 
345 1 1 51.1058 39.5828 8.27692 
346 1 1 51.6942 40.1621 7.72348 
347 1 1 52.5519 39.9207 7.65305 
348 1 1 49.7272 37.5817 8.97467 
349 1 1 49.8081 36.714 9.04738 
350 1 1 49.7801 35.6855 9.03702 
351 1 1 49.4286 32.5742 7.64631 
352 1 1 49.6933 31.9115 7.24499 
353 1 1 50.1388 31.2965 6.66526 
354 1 1 50.6401 30.7184 6.02724 
355 1 1 51.2215 30.2429 5.35103 
356 1 1 51.9446 29.9998 4.67166 
357 1 1 52.653 29.8402 3.98367 
358 1 1 53.5286 29.6676 3.38411 
359 1 1 54.349 29.6353 2.85339 
360 1 1 49.5783 34.4504 8.6739 
361 1 1 49.6867 33.199 8.33098 
362 1 1 53.9979 40.8982 4.94765 
363 1 1 54.5542 40.6222 4.39998 
364 1 1 55.2588 40.1273 3.80612 
365 1 1 55.7736 39.5316 3.15781 
366 1 1 55.3035 29.7362 2.46779 
367 1 1 55.5446 30.5062 1.88915 
368 1 1 55.7749 31.3442 1.47657 
369 1 1 56.0464 38.7824 2.66042 
370 1 1 55.9 32.298 1.22368 
371 1 1 55.9878 33.2204 1.08925 
372 1 1 56.0851 34.2659 1.02865 
373 1 1 56.1026 38.0021 2.05344 
374 1 1 56.1233 37.1182 1.61443 
375 1 1 56.0785 36.1951 1.34454 
376 1 1 56.0727 35.264 1.11286 
377 1 1 50.6458 38.0475 9.05169 
378 1 1 53.0104 40.3156 6.98463 
379 1 1 53.3848 40.6268 6.28714 
380 1 1 54.1441 40.5516 5.79697 
381 1 1 51.409 38.8203 8.73537 
382 1 1 52.0276 39.4213 8.27761 
383 1 1 52.9623 39.3282 8.13363 
384 1 1 53.3335 39.7979 7.52321 
385 1 1 50.5787 37.0265 9.2764 
386 1 1 50.4991 35.9769 9.4121 
387 1 1 50.3241 34.9295 9.2585 
388 1 1 50.0564 32.2542 8.02813 
389 1 1 50.465 31.4481 7.51965 
390 1 1 50.929 30.7253 6.82496 
391 1 1 51.5235 30.1795 6.23068 
392 1 1 52.0918 29.7094 5.54034 
393 1 1 52.7441 29.4325 4.9077 
394 1 1 53.4095 29.2744 4.28156 
395 1 1 54.2828 29.1034 3.64934 
396 1 1 55.1677 29.075 3.16899 
397 1 1 50.3411 33.7688 8.93868 
398 1 1 50.54 32.7228 8.6843 
399 1 1 54.7617 40.3284 5.34246 
400 1 1 55.3601 40.0653 4.70027 
401 1 1 56.0467 39.6119 4.05305 
402 1 1 56.1142 29.1984 2.79633 
403 1 1 56.4756 38.9678 3.41327 
404 1 1 56.3006 29.9662 2.20438 
405 1 1 56.616 30.8264 1.74116 
406 1 1 56.6851 31.7224 1.53895 
407 1 1 56.7289 38.2926 2.88514 
408 1 1 56.81 32.7443 1.37647 
409 1 1 56.836 33.7198 1.33838 
410 1 1 56.8683 34.7866 1.41083 
411 1 1 56.8834 37.5066 2.32528 
412 1 1 56.9251 36.6557 1.93745 
413 1 1 56.9041 35.7506 1.67891 
414 1 1 51.6538 38.127 9.07631 
415 1 1 51.558 37.3119 9.35359 
416 1 1 53.969 40.1046 6.85233 
417 1 1 54.8682 39.9742 6.30734 
418 1 1 52.4078 38.6459 8.75224 
419 1 1 53.3265 38.7582 8.50998 
420 1 1 53.9893 39.2503 7.92743 
421 1 1 51.2845 36.3821 9.50292 
422 1 1 51.2111 35.3598 9.59042 
423 1 1 51.058 34.3852 9.44769 
424 1 1 50.8954 31.7823 8.2782 
425 1 1 51.2619 30.989 7.73711 
426 1 1 51.7094 30.2135 7.21705 
427 1 1 52.3009 29.6511 6.56955 
428 1 1 52.867 29.2304 5.9515 
429 1 1 56.0117 28.6214 3.54051 
430 1 1 53.4672 28.9151 5.21216 
431 1 1 54.1715 28.698 4.52082 
432 1 1 55.125 28.5228 4.00693 
433 1 1 51.0889 33.2968 9.19316 
434 1 1 51.4242 32.1768 8.96006 
435 1 1 55.6281 39.8617 5.60762 
436 1 1 56.2538 39.5515 4.97309 
437 1 1 56.8013 39.0638 4.28418 
438 1 1 56.9572 28.7026 3.12579 
439 1 1 57.1178 29.4228 2.47621 
440 1 1 57.2682 38.4455 3.73166 
441 1 1 57.337 30.3063 2.06222 
442 1 1 57.5669 31.2621 1.79265 
443 1 1 57.6022 32.1979 1.65247 
444 1 1 57.5135 37.7257 3.15352 
445 1 1 57.6625 33.2254 1.64745 
446 1 1 57.5811 34.1762 1.67021 
447 1 1 57.6631 35.1771 1.91488 
448 1 1 57.6147 36.9413 2.67383 
449 1 1 57.7504 36.1086 2.23184 
450 1 1 52.3847 37.7734 9.18459 
451 1 1 52.2462 36.7513 9.52881 
452 1 1 54.8496 39.4572 7.22027 
453 1 1 55.5841 39.5078 6.5786 
454 1 1 53.2399 38.0595 8.96451 
455 1 1 54.0628 38.4501 8.60856 
456 1 1 54.8971 38.8024 8.07362 
457 1 1 52.0538 35.8379 9.75214 
458 1 1 51.9366 34.7461 9.78167 
459 1 1 51.8338 33.7249 9.68872 
460 1 1 51.6903 31.2425 8.63806 
461 1 1 52.0237 30.4318 8.16047 
462 1 1 52.5189 29.7473 7.51965 
463 1 1 53.1116 29.1727 6.89714 
464 1 1 53.6477 28.7153 6.20676 
465 1 1 56.777 28.1345 3.7863 
466 1 1 55.8718 28.1101 4.33688 
467 1 1 54.2327 28.4275 5.47122 
468 1 1 54.9836 28.187 4.88685 
469 1 1 51.9249 32.6893 9.44831 
470 1 1 52.2206 31.7061 9.33478 
471 1 1 56.354 39.2916 5.9952 
472 1 1 56.9499 38.9706 5.24882 
473 1 1 57.594 38.519 4.68544 
474 1 1 57.7554 28.2517 3.48212 
475 1 1 57.9427 28.9206 2.84673 
476 1 1 58.2076 29.7446 2.38254 
477 1 1 58.0219 37.9305 4.12829 
478 1 1 58.3202 30.6246 2.1358 
479 1 1 58.4312 31.6395 1.91817 
480 1 1 58.3999 32.6656 1.89682 
481 1 1 58.2214 37.2112 3.49739 
482 1 1 58.4289 33.7197 2.05121 
483 1 1 58.4797 34.6477 2.15141 
484 1 1 58.5352 35.561 2.50706 
485 1 1 58.3347 36.4429 2.92393 
486 1 1 53.0964 37.2189 9.38577 
487 1 1 52.9857 36.3153 9.72612 
488 1 1 55.6579 38.9191 7.48904 
489 1 1 56.4233 38.8847 6.93067 
490 1 1 54.0084 37.6101 9.18259 
491 1 1 54.8236 38.0277 8.78072 
492 1 1 55.6628 38.2672 8.38524 
493 1 1 52.7867 35.2931 9.95027 
494 1 1 52.7432 34.2684 10.0043 
495 1 1 52.6537 33.2909 9.91867 
496 1 1 57.5964 27.6722 4.10703 
497 1 1 52.441 30.7682 8.97747 
498 1 1 52.8705 29.9521 8.4902 
499 1 1 53.3278 29.2757 7.82559 
500 1 1 53.9245 28.6881 7.18491 
501 1 1 54.5463 28.2336 6.53476 
502 1 1 56.6899 27.6091 4.58297 
503 1 1 55.8446 27.6792 5.21362 
504 1 1 55.0366 27.8633 5.80082 
505 1 1 52.7738 32.2824 9.84023 
506 1 1 53.0697 31.1571 9.59899 
507 1 1 58.6016 27.7502 3.71816 
508 1 1 57.0991 38.725 6.2604 
509 1 1 57.7048 38.3695 5.66022 
510 1 1 58.2794 37.9646 5.05287 
511 1 1 58.7424 28.4834 3.16902 
512 1 1 59.03 29.3078 2.66351 
513 1 1 59.1696 30.2248 2.34677 
514 1 1 58.755 37.3092 4.39537 
515 1 1 59.2667 31.2059 2.13995 
516 1 1 59.2349 32.2019 2.11378 
517 1 1 59.1757 33.1499 2.23957 
518 1 1 59.0507 36.5959 3.7671 
519 1 1 59.3467 34.1323 2.52537 
520 1 1 59.2519 35.0168 2.79336 
521 1 1 59.2673 35.8497 3.26924 
522 1 1 53.9074 36.7467 9.68872 
523 1 1 53.68 35.7871 9.98825 
524 1 1 56.4419 38.3388 7.84629 
525 1 1 57.2103 38.3237 7.24644 
526 1 1 54.7548 37.1212 9.45917 
527 1 1 55.5569 37.5099 9.10695 
528 1 1 56.4496 37.6462 8.68552 
529 1 1 53.5714 34.7775 10.2145 
530 1 1 53.5102 33.8013 10.3396 
531 1 1 53.531 32.764 10.3086 
532 1 1 58.4524 27.118 4.32723 
533 1 1 57.5783 27.1115 4.85991 
534 1 1 53.2711 30.2976 9.21135 
535 1 1 53.6526 29.458 8.71673 
536 1 1 54.1271 28.7068 8.12864 
537 1 1 54.7112 28.1324 7.5 
538 1 1 55.2809 27.6801 6.7626 
539 1 1 56.6296 27.2116 5.47541 
540 1 1 55.8162 27.3606 6.13405 
541 1 1 53.5777 31.6954 10.1053 
542 1 1 53.9023 30.7214 9.91508 
543 1 1 59.4863 27.1656 4.0338 
544 1 1 59.5952 27.9119 3.5035 
545 1 1 57.9102 38.1638 6.59064 
546 1 1 58.5728 37.8223 5.91318 
547 1 1 59.1592 37.4157 5.25066 
548 1 1 59.7184 28.8091 2.97525 
549 1 1 59.9378 29.6427 2.57 
550 1 1 60.0477 30.6446 2.45192 
551 1 1 59.5715 36.8161 4.63046 
552 1 1 60.0593 31.6397 2.31438 
553 1 1 60.0319 32.6165 2.40057 
554 1 1 60.1241 33.5792 2.67615 
555 1 1 59.9203 36.1152 4.00702 
556 1 1 60.1361 34.5134 3.03702 
557 1 1 60.0932 35.3023 3.44388 
558 1 1 54.5643 36.1211 9.91808 
559 1 1 54.4706 35.203 10.2237 
560 1 1 57.2396 37.7713 8.17881 
561 1 1 57.9834 37.8118 7.51887 
562 1 1 55.5134 36.5899 9.65015 
563 1 1 56.3678 36.9228 9.34295 
564 1 1 57.2878 37.1115 8.91421 
565 1 1 54.4309 34.294 10.4878 
566 1 1 54.3481 33.266 10.5969 
567 1 1 54.3033 32.2459 10.5357 
568 1 1 59.2533 26.5257 4.63274 
569 1 1 58.3765 26.5071 5.14485 
570 1 1 57.4747 26.7044 5.74401 
571 1 1 54.0573 29.7916 9.44693 
572 1 1 54.5166 28.8957 9.03353 
573 1 1 54.9454 28.1141 8.37909 
574 1 1 55.4629 27.5932 7.70276 
575 1 1 56.1038 27.1019 7.07286 
576 1 1 56.7062 26.909 6.3399 
577 1 1 54.4481 31.2199 10.3721 
578 1 1 54.6419 30.16 10.0825 
579 1 1 60.2323 26.6249 4.32327 
580 1 1 60.46 27.4217 3.76007 
581 1 1 60.4639 28.232 3.24394 
582 1 1 58.6794 37.5932 6.88553 
583 1 1 59.3608 37.3111 6.19297 
584 1 1 59.9791 36.8882 5.53242 
585 1 1 60.697 29.0848 2.8663 
586 1 1 60.8435 30.0836 2.64831 
587 1 1 60.9057 31.1311 2.51937 
588 1 1 60.3822 36.2841 4.89936 
589 1 1 60.9585 32.1134 2.61334 
590 1 1 60.9439 33.0426 2.86404 
591 1 1 60.8773 34.0329 3.18528 
592 1 1 60.7443 35.6093 4.19055 
593 1 1 60.8845 34.7809 3.72474 
594 1 1 55.3564 35.6144 10.177 
595 1 1 55.3127 34.668 10.5145 
596 1 1 58.0458 37.2167 8.43556 
597 1 1 58.7486 37.1998 7.80037 
598 1 1 56.2644 35.9598 9.93395 
599 1 1 57.1178 36.3066 9.66996 
600 1 1 57.9859 36.5675 9.23733 
601 1 1 55.1985 33.7078 10.7379 
602 1 1 55.1362 32.6835 10.8362 
603 1 1 55.1922 31.7201 10.8243 
604 1 1 60.133 25.9505 4.93107 
605 1 1 61.1372 26.12 4.65614 
606 1 1 60.8298 25.4119 5.26522 
607 1 1 59.1396 25.9266 5.36 
608 1 1 58.2154 26.0591 6.01838 
609 1 1 57.5408 26.3357 6.64072 
610 1 1 54.9045 29.2341 9.74964 
611 1 1 55.2548 28.3071 9.29042 
612 1 1 55.7544 27.5976 8.57408 
613 1 1 56.2565 27.033 8.00764 
614 1 1 56.9106 26.5819 7.29887 
615 1 1 55.2569 30.6658 10.6674 
616 1 1 55.4467 29.707 10.41 
617 1 1 61.2767 26.8717 4.07283 
618 1 1 61.3813 27.7401 3.58468 
619 1 1 61.4869 28.5939 3.2146 
620 1 1 59.4932 37.0707 7.13885 
621 1 1 60.1229 36.7419 6.53386 
622 1 1 60.7646 36.313 5.85648 
623 1 1 61.6603 29.5079 2.89943 
624 1 1 61.7103 30.4762 2.74691 
625 1 1 61.7479 31.5214 2.82524 
626 1 1 61.2368 35.7868 5.10513 
627 1 1 61.8136 32.4982 3.09337 
628 1 1 61.6937 33.3519 3.39986 
629 1 1 61.63 34.1521 3.88839 
630 1 1 61.5286 34.9821 4.41893 
631 1 1 0.13351 26.3528 4.36726 
632 1 1 61.9755 25.4576 4.99155 
633 1 1 56.1891 35.0998 10.4821 
634 1 1 56.0962 34.1707 10.846 
635 1 1 58.8207 36.6045 8.76821 
636 1 1 59.5666 36.7084 8.03334 
637 1 1 57.0699 35.4884 10.2777 
638 1 1 57.9283 35.8412 9.91651 
639 1 1 58.7665 36.015 9.60064 
640 1 1 55.9594 33.1519 10.9506 
641 1 1 56.015 32.2092 11.0485 
642 1 1 55.9939 31.1966 11.0973 
643 1 1 59.9068 25.3208 5.62073 
644 1 1 61.4408 24.8418 5.60912 
645 1 1 60.6264 24.8609 5.94409 
646 1 1 59.0783 25.5223 6.18408 
647 1 1 58.3943 25.7438 6.90817 
648 1 1 57.7003 26.1134 7.60797 
649 1 1 55.617 28.7852 10.0477 
650 1 1 56.098 27.8719 9.5548 
651 1 1 56.5925 27.144 8.96265 
652 1 1 57.0803 26.5333 8.26407 
653 1 1 56.1101 30.1487 10.9388 
654 1 1 56.2569 29.1275 10.6981 
655 1 1 0.253161 27.2194 3.86907 
656 1 1 0.307369 28.1033 3.49708 
657 1 1 0.439702 29.0566 3.21398 
658 1 1 60.3259 36.51 7.44824 
659 1 1 60.9221 36.1898 6.79562 
660 1 1 61.5176 35.7542 6.0621 
661 1 1 0.51997 30.0428 3.00589 
662 1 1 0.544091 31.0167 3.0551 
663 1 1 0.630656 31.9709 3.37216 
664 1 1 61.9555 35.1613 5.35505 
665 1 1 0.555827 32.8442 3.68596 
666 1 1 0.370821 33.625 4.16959 
667 1 1 0.22084 34.478 4.75513 
668 1 1 1.0112 26.6936 4.0999 
669 1 1 0.890409 25.7056 4.56121 
670 1 1 0.252434 24.7454 5.44329 
671 1 1 61.9656 24.3098 5.95903 
672 1 1 0.912893 24.9447 5.03086 
673 1 1 56.9912 34.5579 10.8108 
674 1 1 56.9227 33.6402 11.057 
675 1 1 59.5659 36.1628 9.05699 
676 1 1 60.3497 36.2137 8.41638 
677 1 1 57.8986 35.0713 10.6607 
678 1 1 58.7925 35.2803 10.3456 
679 1 1 59.5055 35.4832 9.89436 
680 1 1 56.8555 32.6199 11.1909 
681 1 1 56.8438 31.6205 11.3142 
682 1 1 56.8696 30.6349 11.3122 
683 1 1 59.8158 24.9492 6.48048 
684 1 1 61.2569 24.3199 6.35073 
685 1 1 60.5316 24.3463 6.80311 
686 1 1 59.1301 25.2264 7.18182 
687 1 1 58.493 25.5789 7.87641 
688 1 1 57.8881 26.0139 8.55906 
689 1 1 56.5596 28.2426 10.344 
690 1 1 56.9122 27.3683 9.80574 
691 1 1 57.4633 26.6328 9.23767 
692 1 1 56.8924 29.5405 11.2052 
693 1 1 57.0771 28.563 10.9603 
694 1 1 1.12641 27.6364 3.75695 
695 1 1 1.20689 28.6101 3.45202 
696 1 1 1.30565 29.5321 3.32137 
697 1 1 61.0721 36.036 7.77582 
698 1 1 61.6669 35.6543 7.12861 
699 1 1 0.266429 35.2134 6.32985 
700 1 1 1.35299 30.5183 3.33186 
701 1 1 1.38684 31.4988 3.61325 
702 1 1 1.30824 32.429 4.01456 
703 1 1 0.703537 34.6073 5.58086 
704 1 1 1.25991 33.1497 4.48402 
705 1 1 1.0194 33.8853 4.97551 
706 1 1 1.9339 27.0071 3.96994 
707 1 1 1.90943 26.1068 4.25024 
708 1 1 1.80575 25.202 4.69981 
709 1 1 0.098691 23.7717 6.59505 
710 1 1 0.85198 24.2256 5.74223 
711 1 1 1.54475 24.4936 5.22585 
712 1 1 57.8474 34.032 11.0299 
713 1 1 57.7258 33.0624 11.3027 
714 1 1 60.3393 35.5841 9.32445 
715 1 1 61.102 35.6388 8.63591 
716 1 1 58.7378 34.4077 10.9049 
717 1 1 59.5772 34.7435 10.6201 
718 1 1 60.3467 34.9495 10.1087 
719 1 1 57.7494 32.1323 11.4845 
720 1 1 57.6868 31.1348 11.5511 
721 1 1 57.7069 30.1246 11.6196 
722 1 1 59.8218 24.6345 7.46239 
723 1 1 61.2518 23.9041 7.20014 
724 1 1 60.5918 24.1219 7.77162 
725 1 1 59.2214 25.017 8.26449 
726 1 1 58.6877 25.4925 8.90708 
727 1 1 58.2342 26.0602 9.51565 
728 1 1 57.4622 27.6869 10.5749 
729 1 1 57.77 26.8485 10.0838 
730 1 1 57.7016 29.0662 11.4975 
731 1 1 57.9188 28.1127 11.2488 
732 1 1 2.04658 27.9663 3.66354 
733 1 1 2.13363 28.9182 3.54716 
734 1 1 2.16255 29.918 3.567 
735 1 1 61.8444 35.3676 8.04325 
736 1 1 0.47619 35.0962 7.2853 
737 1 1 1.03548 34.6774 6.53618 
738 1 1 2.19762 30.9132 3.96186 
739 1 1 2.0914 31.8743 4.27049 
740 1 1 2.01174 32.6789 4.73877 
741 1 1 1.46053 34.1331 5.87428 
742 1 1 1.80769 33.451 5.30922 
743 1 1 2.80825 26.4628 4.1547 
744 1 1 2.86522 27.43 3.97718 
745 1 1 2.8191 25.6326 4.42409 
746 1 1 3.72361 26.0068 4.35774 
747 1 1 61.9242 23.5454 7.49237 
748 1 1 2.77761 24.8626 4.78514 
749 1 1 0.708361 23.2509 7.27546 
750 1 1 2.32667 24.295 5.1597 
751 1 1 1.08432 23.5282 6.43918 
752 1 1 1.71746 23.8454 5.80625 
753 1 1 58.6166 33.4385 11.3737 
754 1 1 58.6048 32.4772 11.5328 
755 1 1 61.1473 35.0522 9.58065 
756 1 1 61.8693 35.0523 8.9065 
757 1 1 59.5275 33.951 11.1832 
758 1 1 60.3901 34.2158 10.9316 
759 1 1 61.1254 34.4327 10.4246 
760 1 1 58.5014 31.6263 11.8074 
761 1 1 58.4093 30.6265 11.8814 
762 1 1 58.4738 29.6331 11.9309 
763 1 1 59.9955 24.4615 8.45615 
764 1 1 61.3772 23.6686 8.05077 
765 1 1 60.7815 23.9386 8.80675 
766 1 1 59.4483 24.9775 9.24538 
767 1 1 58.9923 25.5022 9.97261 
768 1 1 58.6164 26.3038 10.47 
769 1 1 58.2607 27.2103 10.9266 
770 1 1 58.4388 28.6159 11.7923 
771 1 1 58.711 27.5905 11.6626 
772 1 1 2.95462 28.4373 3.82505 
773 1 1 2.90926 29.4594 3.7857 
774 1 1 2.92364 30.4297 4.07705 
775 1 1 0.617804 34.8147 8.29778 
776 1 1 1.21663 34.5353 7.53007 
777 1 1 1.84537 34.1108 6.81747 
778 1 1 2.91914 31.2794 4.54821 
779 1 1 2.88117 32.0533 4.98905 
780 1 1 2.58679 32.7999 5.53282 
781 1 1 2.2419 33.5441 6.13649 
782 1 1 3.64462 30.7608 4.59859 
783 1 1 3.66056 26.8975 4.12621 
784 1 1 3.67191 27.8788 4.06805 
785 1 1 3.73367 25.0749 4.74114 
786 1 1 4.44965 26.3711 4.41975 
787 1 1 4.43477 25.593 4.59914 
788 1 1 4.69651 24.9441 4.89448 
789 1 1 0.234828 23.1596 8.30935 
790 1 1 1.12832 22.8159 8.05952 
791 1 1 3.18312 24.2649 5.08591 
792 1 1 1.54964 23.0261 7.21375 
793 1 1 2.59124 23.6958 5.70198 
794 1 1 2.03304 23.302 6.41379 
795 1 1 59.4384 33.0012 11.5873 
796 1 1 59.4043 32.0207 11.9212 
797 1 1 61.8668 34.5285 9.94783 
798 1 1 0.624293 34.4726 9.29426 
799 1 1 60.3424 33.321 11.4895 
800 1 1 61.2416 33.6983 11.218 
801 1 1 61.9786 33.9649 10.7661 
802 1 1 59.2618 31.0641 12.2086 
803 1 1 59.1917 30.0797 12.3073 
804 1 1 59.1699 29.1121 12.3515 
805 1 1 60.1337 24.4415 9.4101 
806 1 1 61.5321 23.45 9.12588 
807 1 1 60.9023 23.8971 9.71557 
808 1 1 59.7053 24.9421 10.1431 
809 1 1 59.3435 25.7094 10.8453 
810 1 1 58.9256 26.6577 11.3554 
811 1 1 59.2367 28.0905 12.2425 
812 1 1 59.435 27.0164 12.0121 
813 1 1 3.69743 28.8009 4.10704 
814 1 1 3.66033 29.766 4.1593 
815 1 1 1.37304 34.2603 8.5891 
816 1 1 2.03216 33.994 7.7991 
817 1 1 2.59316 33.5876 7.1239 
818 1 1 3.79728 31.4955 5.22514 
819 1 1 3.45077 32.4008 5.86198 
820 1 1 3.01701 33.0892 6.44338 
821 1 1 4.17222 30.0853 4.64129 
822 1 1 4.30027 30.7112 5.01596 
823 1 1 4.30348 28.313 4.24538 
824 1 1 4.55379 27.3818 4.35747 
825 1 1 5.14411 26.7181 4.56171 
826 1 1 4.10227 24.1875 5.24888 
827 1 1 5.32238 25.8028 4.72641 
828 1 1 5.4558 24.9553 5.00147 
829 1 1 5.04839 24.2277 5.30344 
830 1 1 0.336598 22.9163 9.32986 
831 1 1 0.875515 22.6757 8.81773 
832 1 1 1.56587 22.3612 8.68362 
833 1 1 1.99107 22.48 7.84912 
834 1 1 3.50252 23.5218 5.67929 
835 1 1 2.38109 22.7224 7.08361 
836 1 1 2.90402 23.067 6.2853 
837 1 1 60.2873 32.4312 11.9819 
838 1 1 60.1947 31.5405 12.3809 
839 1 1 0.703036 34.0645 10.241 
840 1 1 1.47723 33.9214 9.59104 
841 1 1 61.1904 32.9189 11.8155 
842 1 1 0.0454513 33.1793 11.5305 
843 1 1 0.820323 33.4338 11.1472 
844 1 1 59.9964 30.5658 12.579 
845 1 1 59.9114 29.5955 12.7215 
846 1 1 59.9714 28.5899 12.7694 
847 1 1 60.5005 24.3899 10.3729 
848 1 1 61.7537 23.3383 9.93683 
849 1 1 61.26 23.808 10.5624 
850 1 1 60.0872 25.1008 11.092 
851 1 1 59.7898 26.0412 11.7305 
852 1 1 60.016 27.5515 12.5808 
853 1 1 60.1144 26.7358 12.4496 
854 1 1 4.44798 29.2358 4.49218 
855 1 1 2.16068 33.7614 8.83647 
856 1 1 2.76507 33.4857 8.15719 
857 1 1 4.56869 31.1641 5.6651 
858 1 1 3.40144 33.1126 7.41563 
859 1 1 4.21891 31.8719 6.08772 
860 1 1 3.86526 32.6378 6.80278 
861 1 1 4.91188 30.2006 5.11882 
862 1 1 5.22 30.6286 5.76754 
863 1 1 5.09902 28.3165 4.60303 
864 1 1 5.47425 27.4454 4.70246 
865 1 1 5.87763 26.628 4.81648 
866 1 1 6.24327 25.9928 4.98481 
867 1 1 4.4858 23.503 5.72272 
868 1 1 6.16203 25.2308 5.15137 
869 1 1 5.95815 24.4023 5.39588 
870 1 1 5.64103 23.487 6.04859 
871 1 1 0.48886 22.8422 10.0856 
872 1 1 1.21698 22.3862 9.67443 
873 1 1 2.03657 22.047 9.23319 
874 1 1 2.4551 22.0309 8.56081 
875 1 1 2.88513 22.1609 7.77064 
876 1 1 3.88796 22.9398 6.25622 
877 1 1 3.38563 22.5088 6.93949 
878 1 1 61.1265 31.9954 12.3302 
879 1 1 60.9388 31.0261 12.7213 
880 1 1 1.5304 33.4539 10.5067 
881 1 1 2.32983 33.4074 9.81998 
882 1 1 -0.00356178 32.3216 12.1585 
883 1 1 0.844102 32.6229 11.8722 
884 1 1 1.56418 32.9076 11.4036 
885 1 1 60.7304 30.0593 12.9599 
886 1 1 60.7702 29.0777 13.0745 
887 1 1 60.7408 28.1131 13.0763 
888 1 1 60.9715 24.5252 11.2613 
889 1 1 61.7086 23.8344 11.2867 
890 1 1 0.264665 23.2414 10.8683 
891 1 1 60.5262 25.4066 11.7872 
892 1 1 60.4804 26.0203 12.2547 
893 1 1 60.8229 27.1913 12.9932 
894 1 1 60.8476 26.4505 12.7372 
895 1 1 5.33343 29.2237 5.03918 
896 1 1 2.96266 33.2115 9.07889 
897 1 1 3.57171 32.9433 8.37205 
898 1 1 5.09275 31.2712 6.47831 
899 1 1 4.16229 32.4727 7.68622 
900 1 1 4.63785 31.9695 7.05133 
901 1 1 5.58467 29.9123 5.66842 
902 1 1 5.7577 30.4259 6.34356 
903 1 1 5.85187 28.3329 5.02093 
904 1 1 6.27076 27.4029 5.06564 
905 1 1 6.81522 26.6016 5.23167 
906 1 1 6.89908 25.6562 5.36123 
907 1 1 4.92379 22.8163 6.48693 
908 1 1 6.80275 24.8036 5.59446 
909 1 1 6.63384 24.0019 5.99479 
910 1 1 6.42215 23.3484 6.50766 
911 1 1 5.86631 22.8865 6.84432 
912 1 1 0.969031 22.6076 10.702 
913 1 1 1.605 22.2079 10.5388 
914 1 1 2.13296 21.9837 10.0551 
915 1 1 2.76847 21.763 9.36775 