ITEM: TIMESTEP
100000000
ITEM: NUMBER OF ATOMS
44148
ITEM: BOX BOUNDS pp pp pp
0 62
0 62
0 62
ITEM: ATOMS id mol type x y z vx vy vz 
1 1 3 12.7354 51.0593 61.8611 0.0412564 -0.0722033 0.113801
2 1 1 13.4586 50.6846 0.170381 -0.145136 -0.089353 0.0262675
3 1 3 12.6175 50.5264 0.649371 0.0168227 -0.140667 -0.0944808
4 1 1 13.4424 50.2167 1.00613 0.0365797 -0.113653 -0.0610024
5 1 3 11.8349 51.0877 0.375279 -0.0152575 0.0777855 -0.0509883
6 1 1 12.501 50.0975 1.49407 -0.0330257 0.00845205 -0.00821582
7 1 3 13.3082 49.8469 1.95538 -0.0512836 -0.0241107 -0.00999889
8 1 1 13.4816 51.3573 61.4693 -0.0970013 -0.242989 -0.0960641
9 1 3 14.3278 50.9783 61.737 0.26387 0.00119806 0.0390942
10 1 1 14.2712 50.4372 0.51264 0.163132 0.0873327 0.0317878
11 1 3 14.1548 49.9904 1.3751 -0.197171 -0.0698767 0.0553099
12 1 1 14.1847 49.6793 2.18083 0.234119 0.0942198 -0.0540475
13 1 3 12.5412 51.812 61.341 0.0601049 0.0382006 0.0235641
14 1 1 11.9993 51.5624 61.8082 -0.05468 0.0774722 0.0500348
15 1 3 11.3861 51.7857 0.00625332 -0.0709625 -0.102151 -0.0212288
16 1 1 11.7727 50.5874 1.09272 0.04403 -0.0476238 -0.0116441
17 1 3 11.027 51.293 0.784047 -0.122232 0.00829398 -0.00174224
18 1 1 13.7278 49.6272 2.73058 -0.0515515 0.0626646 0.0326239
19 1 3 12.908 49.6859 2.90516 -0.020274 -0.0848876 0.0461912
20 1 1 12.3857 49.8661 2.39846 -0.0789539 0.0539459 0.138754
21 1 3 11.6496 50.2794 1.95139 -0.153532 -0.133036 0.0264977
22 1 1 12.7425 52.4173 60.9771 0.00869616 0.101607 0.0634026
23 1 3 13.6685 51.9399 61.0491 0.0594407 -0.194186 -0.0469034
24 1 1 14.552 51.6546 61.1912 0.0780343 0.0616429 0.0345263
25 1 3 15.191 51.3619 61.4974 -0.118528 0.0318224 0.0596798
26 1 1 15.2362 50.7338 0.205318 0.128666 0.0183926 -0.0785265
27 1 3 15.1354 50.1941 0.930988 0.125559 0.0139353 0.0179791
28 1 1 14.4499 49.5805 3.01456 0.0474472 0.0119808 -0.0550458
29 1 3 15.0657 49.8553 1.75672 -0.129944 -0.0908381 0.105454
30 1 1 15.1585 49.6491 2.52516 -0.0229252 0.0649615 -0.130459
31 1 3 11.807 52.4071 61.3499 -0.108152 0.0652934 0.110199
32 1 1 11.0473 52.3565 61.8827 -0.164729 -0.148616 -0.131524
33 1 3 10.647 52.0355 0.582744 0.16089 0.0379563 -0.124105
34 1 1 10.9242 50.9047 1.60447 0.0560084 -0.0270515 0.0382742
35 1 3 10.3897 51.6476 1.37743 0.0768195 -0.0588888 -0.207988
36 1 1 13.6988 49.5827 3.47937 -0.0240891 -0.154393 -0.0595605
37 1 3 12.986 49.7186 3.81376 0.117042 0.0709297 -0.130708
38 1 1 14.4671 49.5858 3.8192 0.168341 0.0844975 -0.107634
39 1 3 12.1875 49.9006 3.44854 -0.00490482 -0.116502 0.0483942
40 1 1 11.6309 50.1459 2.94604 -0.103158 -0.0370487 -0.0447015
41 1 3 10.9225 50.6827 2.63511 -0.196719 -0.0301702 0.0861931
42 1 1 12.3934 53.0728 60.8875 -0.0486661 0.00644931 -0.0693554
43 1 3 13.255 53.2408 60.6202 -0.116484 0.0674161 -0.0339837
44 1 1 13.8131 52.7952 60.7278 0.0686014 -0.00267685 0.0928219
45 1 3 14.3664 52.3724 60.9085 -0.0721292 -0.142699 -0.192166
46 1 1 15.1424 52.3052 61.0117 0.0909237 -0.0465887 0.00553268
47 1 3 15.8666 52.1468 61.2831 -0.0245118 0.0995022 0.0260954
48 1 1 15.9605 51.2796 61.8743 0.0882595 0.212541 -0.0475436
49 1 3 16.0466 50.6184 0.665413 0.117754 -0.0412302 -0.224572
50 1 1 16.043 50.2355 1.51177 -0.214367 0.082727 -0.0338626
51 1 3 15.2876 49.6433 3.40007 0.0302799 -0.0963992 -0.0312451
52 1 1 15.9966 49.9953 2.30193 0.0560443 -0.223273 -0.0303497
53 1 3 15.7455 49.7156 2.92702 -0.00907634 -0.141331 0.0103524
54 1 1 11.7762 53.2954 61.1342 0.180286 -0.0676962 -0.178524
55 1 3 12.2728 54.1189 60.7748 -0.0353983 0.0525839 0.133636
56 1 1 11.1737 53.074 61.4843 0.0472335 0.0503181 0.0340436
57 1 3 10.5532 52.8063 0.0781746 -0.121807 0.0645905 -0.00620759
58 1 1 11.033 53.9512 61.493 -0.071822 -0.0327456 0.0737759
59 1 3 10.0447 52.617 0.941864 0.164921 -0.0284226 0.0279881
60 1 1 10.2763 51.3377 2.3083 -0.0361831 0.0354672 -0.132253
61 1 3 9.82911 52.2582 1.73045 -0.0582336 -0.120964 0.107071
62 1 1 12.2853 49.9489 4.13426 -0.0977494 0.066708 0.015418
63 1 3 13.7192 49.6865 4.30485 0.154542 0.0656093 0.0583665
64 1 1 12.8658 49.832 4.62464 0.0404132 0.114659 -0.0460258
65 1 3 15.3436 49.6972 4.16062 0.0851326 -0.110276 0.178057
66 1 1 14.4979 49.7026 4.61539 -0.167671 -0.0319709 -0.17861
67 1 3 11.6712 50.1224 4.01583 -0.129048 -0.00645924 0.185237
68 1 1 10.9596 50.5751 3.61219 0.0915113 0.0145619 0.0783204
69 1 3 10.2815 51.1487 3.27084 0.00640768 0.0352321 -0.0545287
70 1 1 12.9634 53.8117 60.5692 0.0430566 0.0668694 0.0347614
71 1 3 13.883 53.6545 60.4133 0.247462 0.196771 -0.159362
72 1 1 14.8279 53.2018 60.6085 -0.0973701 -0.0721608 0.0159134
73 1 3 15.7129 53.0382 60.8915 -0.0732079 -0.0142495 -0.194762
74 1 1 16.4454 52.7864 61.331 0.155221 -0.0277921 -0.0684131
75 1 3 16.6795 51.988 61.7831 -0.00604097 0.0730329 -0.0950885
76 1 1 16.77 51.1782 0.455705 0.0669684 -0.133385 -0.0027924
77 1 3 16.8375 50.6416 1.30104 0.0893572 0.0379067 0.0370499
78 1 1 16.7611 50.4111 2.11839 0.0758988 0.016341 -0.0655682
79 1 3 16.0276 49.8188 3.64692 0.119652 0.0061213 0.0243376
80 1 1 16.6765 50.1468 3.03497 -0.0735346 0.0947395 0.0560487
81 1 3 16.0482 49.9878 4.5924 0.112929 -0.145571 0.17659
82 1 1 12.863 54.8592 60.6821 0.0422609 -0.0531202 0.197632
83 1 3 11.5802 54.3899 61.1278 -0.0738063 0.0658273 0.106871
84 1 1 12.1274 54.8525 60.9164 0.0301615 -0.0149188 0.120283
85 1 3 10.6091 53.7382 61.8406 0.198133 0.0660588 -0.0053267
86 1 1 10.018 53.4792 0.561894 -0.0391747 0.0185094 -0.0680502
87 1 3 10.7945 54.5889 61.7048 0.212146 -0.0316371 0.174134
88 1 1 9.60451 53.2398 1.47574 0.159805 -0.0848823 0.196014
89 1 3 9.77357 51.9917 2.76615 0.0963438 -0.137083 0.078302
90 1 1 9.45493 52.9694 2.40407 -0.0278699 0.0597745 0.0435856
91 1 3 11.9464 50.1917 5.00224 0.134697 0.0135689 0.137922
92 1 1 13.6563 49.779 5.13581 -0.0489986 -0.188607 0.0788167
93 1 3 12.845 50.0435 5.49262 -0.0517924 -0.0167014 0.343054
94 1 1 15.2065 49.8383 5.02837 -0.205492 0.0202825 0.139342
95 1 3 14.5061 49.9215 5.52906 0.130873 0.103271 -0.015473
96 1 1 11.095 50.6024 4.71935 0.171037 -0.00139947 0.245353
97 1 3 10.4559 51.0805 4.24389 0.2261 -0.21912 -0.0411811
98 1 1 9.85412 51.9072 3.73604 0.0336273 -0.0103115 -0.00236953
99 1 3 13.6633 54.442 60.4547 0.128196 0.0849345 -0.118663
100 1 1 14.6563 54.3035 60.3936 -0.0723862 0.0295302 -0.0807339
101 1 3 15.5869 54.1345 60.6052 -0.275484 0.0288302 0.00312306
102 1 1 16.4151 53.7845 61.0189 -0.134913 0.0192396 -0.0420841
103 1 3 17.0944 52.5981 61.7952 -0.127698 0.112075 -0.260479
104 1 1 17.0729 53.2457 61.5259 0.0413546 -0.181233 0.149024
105 1 3 17.5077 51.9915 0.463118 0.0562814 0.0586446 0.0278315
106 1 1 17.4985 51.2201 1.23306 0.121553 0.00295994 0.030849
107 1 3 17.4141 50.8548 2.04645 -0.0802745 -0.034359 0.0896957
108 1 1 17.3313 50.6053 2.72397 -0.0841576 -0.0602755 0.0225513
109 1 3 16.003 50.1236 5.52985 0.161173 0.00573242 0.121011
110 1 1 16.7714 50.1992 4.08047 -0.229368 0.178582 -0.0170971
111 1 3 17.4364 50.6188 3.41044 -0.100776 -0.0992612 0.060678
112 1 1 16.8523 50.386 5.06401 0.0872144 0.0124553 -0.0867025
113 1 3 12.3814 55.5449 60.9441 -0.0142447 0.0554777 -0.16593
114 1 1 13.3478 55.4747 60.6455 0.0317233 -0.0974034 0.184233
115 1 3 11.4716 55.4549 61.4269 -0.0461854 -0.0787601 -0.125384
116 1 1 11.9646 56.2182 61.4742 -0.0141299 -0.00944649 -0.0730274
117 1 3 10.1369 54.5193 0.319102 -0.0969755 -0.009101 -0.0177037
118 1 1 9.60411 54.3023 1.1414 0.0181734 0.00021276 -0.0523668
119 1 3 10.575 55.4369 0.155462 0.000571923 -0.034214 -0.00942055
120 1 1 9.32654 53.8982 2.13453 -0.0607954 0.114855 0.195853
121 1 3 9.49269 52.7243 3.33141 0.217774 -0.00337021 -0.0528014
122 1 1 9.22906 53.6758 2.84399 -0.0194127 0.0952146 0.110039
123 1 3 11.3642 50.7855 5.59921 0.17089 -0.0571917 -0.136293
124 1 1 12.1551 50.5143 5.86365 0.103263 0.0925981 0.149272
125 1 3 13.5337 50.0947 5.9265 0.0380365 -0.128542 -0.0622074
126 1 1 12.6795 50.554 6.25794 -0.00441126 -0.00841982 -0.186957
127 1 3 15.2155 50.1374 5.97591 -0.012496 -0.02215 -0.059122
128 1 1 14.358 50.299 6.37389 -0.139211 -0.0237365 0.0170921
129 1 3 15.951 50.3664 6.44463 -0.0450894 -0.147261 0.0254655
130 1 1 9.57108 52.7048 4.23385 -0.0640073 -0.00873993 0.0649481
131 1 3 10.7106 51.1694 5.27229 0.0044378 -0.0461048 0.0553431
132 1 1 10.0087 52.0558 4.76245 -0.0486409 0.147835 0.114566
133 1 3 14.2629 55.1949 60.4594 0.221508 0.00653443 0.0414219
134 1 1 15.2327 54.9886 60.5427 0.0260493 -0.0866667 -0.0853727
135 1 3 17.1024 54.0291 61.372 -0.0533587 -0.0681779 0.0917601
136 1 1 16.1048 54.7985 60.8187 -0.0318967 0.0482732 0.146617
137 1 3 16.8463 54.7032 61.1711 -0.053034 -0.0783854 -0.0633909
138 1 1 17.649 53.0013 0.0877688 -0.0791196 -0.00600076 0.0369258
139 1 3 17.6502 53.8481 61.746 -0.156802 -0.0543876 0.0367906
140 1 1 18.2189 52.7124 0.849937 0.0491037 0.100227 0.0978228
141 1 3 18.0445 51.8265 1.45688 0.0786294 0.00231419 0.0426687
142 1 1 17.8772 51.3589 1.98175 0.238586 -0.0351578 0.0105839
143 1 3 17.9499 51.1667 2.81068 0.181416 -0.0389903 -0.048912
144 1 1 16.7675 50.4691 5.91663 0.129767 0.030501 -0.0775703
145 1 3 17.4304 50.647 4.26661 0.0557614 0.108781 0.0653347
146 1 1 17.8453 50.9845 3.774 -0.0597872 -0.0140367 -0.0308821
147 1 3 17.537 50.7735 5.33953 -0.147037 0.0058308 -0.256385
148 1 1 12.8695 56.2425 61.0937 -0.185332 0.0367552 0.292637
149 1 3 13.8303 56.1181 60.7588 -0.0600091 -0.0560164 -0.0394233
150 1 1 11.0869 56.2585 0.0962859 -0.10504 -0.0758294 -0.0430323
151 1 3 12.6228 56.8652 61.5407 0.148433 0.105859 -0.0420384
152 1 1 11.7371 56.9813 0.105667 0.0259018 -0.0410284 -0.212663
153 1 3 9.89327 55.221 0.928536 -0.0157085 -0.0830824 -0.00611278
154 1 1 9.48772 54.854 1.87323 0.00926138 -0.0597098 0.106566
155 1 3 10.3958 56.0521 0.717842 0.0418218 0.0550093 0.046192
156 1 1 9.24534 54.608 2.86145 -0.143634 -0.0620066 -0.0406406
157 1 3 9.31315 53.5253 3.79164 0.00231077 -0.100712 -0.0278125
158 1 1 9.18549 54.2516 3.44736 0.0464402 -0.10772 -0.0585646
159 1 3 11.0359 51.3592 6.00503 -0.0594908 -0.0183939 0.0233068
160 1 1 11.8464 51.1464 6.42013 0.0414473 -0.0221766 -0.186343
161 1 3 12.6585 51.0744 6.95831 -0.097631 -0.0197187 -0.0143684
162 1 1 13.4835 50.6482 6.78218 -0.0600316 0.109844 -0.00529202
163 1 3 15.1269 50.4525 6.82593 0.0813224 0.0106511 -0.00957696
164 1 1 14.4203 50.6373 7.10935 -0.0989186 0.0303841 -0.00920629
165 1 3 16.6605 50.7003 6.77983 0.100548 0.135908 -0.0193064
166 1 1 15.8285 50.6053 7.06912 0.0220769 -0.18209 0.131447
167 1 3 9.67959 52.9435 4.98625 0.042285 0.0868506 0.0496304
168 1 1 9.41525 53.4694 4.56148 -0.0410601 -0.096696 -0.139243
169 1 3 10.5281 51.9138 5.79699 -0.0246597 0.046767 0.101864
170 1 1 9.97617 52.6931 5.61942 0.00229632 -0.199218 0.00874723
171 1 3 14.8469 55.9394 60.6366 -0.0678024 0.0326765 -0.109958
172 1 1 15.7235 55.7916 60.8377 -0.102799 0.080244 -0.0241584
173 1 3 17.4536 54.5875 61.6702 0.164802 0.0946674 0.127663
174 1 1 16.5316 55.6259 61.134 0.112168 0.104797 0.00672824
175 1 3 17.161 55.3065 61.4824 -0.0164103 0.0146853 -0.187457
176 1 1 17.9737 54.525 0.224062 0.149865 -0.00914351 -0.0489954
177 1 3 18.1804 53.6228 0.481456 -0.0705263 -0.114283 0.11696
178 1 1 18.7045 53.4785 1.26219 0.10472 0.0740178 0.00199734
179 1 3 18.5877 52.6354 1.69551 0.0522294 -0.0304017 -0.067658
180 1 1 18.349 51.863 2.23203 0.186811 0.0819201 -0.0268197
181 1 3 18.5259 51.8587 3.03478 0.0361798 -0.0589519 -0.0185913
182 1 1 18.3979 51.5793 3.62747 -0.056139 0.108451 0.132897
183 1 3 17.5691 50.9274 6.36835 -0.114477 0.0292739 -0.0201731
184 1 1 17.2378 51.0365 7.23259 0.00321281 -0.00740074 0.0488853
185 1 3 18.1263 51.245 4.59676 -0.0702528 -0.0293491 -0.147725
186 1 1 18.0993 51.1938 5.62355 0.103685 -0.0317523 0.0869995
187 1 3 13.4868 56.871 61.2028 -0.00297337 0.0792202 -0.0868882
188 1 1 14.431 56.8646 61.1403 -0.0029686 0.035332 0.0308853
189 1 3 10.9036 56.8563 0.75492 -0.122401 -0.0229669 0.0664255
190 1 1 11.4248 57.5095 0.896332 -0.170515 -0.0352581 -0.00998358
191 1 3 13.0633 57.3932 61.7232 0.0161817 -0.0616667 0.0601327
192 1 1 12.4895 57.5026 0.0189388 0.0098624 -0.0613801 0.0503147
193 1 3 12.0211 57.7043 0.522892 0.0118172 -0.0769521 0.0761187
194 1 1 9.88705 55.8278 1.67068 -0.0399629 0.13824 0.191243
195 1 3 9.49979 55.5251 2.59372 -0.149058 -0.024879 -0.0568534
196 1 1 10.3698 56.6506 1.54103 0.0787481 0.0487389 0.0755324
197 1 3 9.34744 55.1544 3.64912 -0.159222 -0.0494336 0.190155
198 1 1 9.25571 54.3252 4.21957 -0.110632 -0.00347569 -0.000714693
199 1 3 11.0955 51.8242 6.49461 0.0350971 -0.0297815 0.0496609
200 1 1 11.4692 51.9638 7.00371 0.03423 0.118887 0.044491
201 1 3 12.2229 51.5836 7.28535 0.0590512 -0.0638921 -0.00580825
202 1 1 13.0644 51.3081 7.55482 0.089347 -0.120327 0.109205
203 1 3 14.0069 51.0512 7.72817 0.0489053 0.0383957 -0.160311
204 1 1 15.1021 50.9163 7.72492 -0.161754 -0.0805637 0.0409036
205 1 3 16.3732 50.9224 7.7371 0.150505 -0.142927 0.0922694
206 1 1 9.62015 53.522 5.48571 0.0579885 0.182283 -0.0543342
207 1 3 9.43464 54.2877 5.0905 0.022544 0.0520325 -0.0122951
208 1 1 10.4501 52.6378 6.34369 -0.0642676 0.00598855 0.0709534
209 1 3 10.0286 53.4445 6.23999 0.0567388 -0.159354 0.108845
210 1 1 15.3689 56.7133 61.1553 0.0180538 0.00631782 0.0838763
211 1 3 16.2039 56.4446 61.3818 0.202762 -0.0838225 0.10251
212 1 1 17.6069 55.4641 0.0324692 0.00241514 0.0392345 0.0409217
213 1 3 17.0408 56.2413 61.8006 0.164698 0.0759269 0.0658338
214 1 1 18.1378 55.2509 0.668697 0.0639958 0.0378858 -0.117149
215 1 3 18.4947 54.3614 0.896656 -0.0256179 -0.0581672 -0.00133783
216 1 1 17.4038 51.25 7.96544 -0.160691 -0.0810781 -0.0386794
217 1 3 17.9876 51.368 7.14848 0.0966647 0.0679508 -0.102603
218 1 1 18.9422 54.3471 1.63122 0.0989043 0.0623891 0.216813
219 1 3 19.0519 53.5159 2.1291 -0.059951 0.066491 -0.0170695
220 1 1 18.8754 52.6433 2.65437 0.00112594 -0.143908 0.0293372
221 1 3 18.9354 52.3047 3.60396 -0.01005 -0.0037416 -0.0161535
222 1 1 18.8596 51.9897 4.45112 -0.0310245 0.055988 0.00260019
223 1 3 18.3699 51.4479 6.29128 -0.00155714 -0.11454 0.0734203
224 1 1 18.7095 51.696 5.4356 -0.0259939 -0.249814 -0.110188
225 1 3 15.1103 57.4956 61.6039 0.0134684 0.0735208 -0.113196
226 1 1 13.9846 57.7135 61.783 -0.0843565 0.0666492 0.11256
227 1 3 10.8781 57.3454 1.58762 0.023623 -0.172539 -0.0466664
228 1 1 11.4617 57.9308 1.56439 0.0184142 0.0927381 -0.0302124
229 1 3 12.0201 58.1707 1.16625 0.0791126 0.0906224 0.0774331
230 1 1 13.2859 58.0763 0.229606 -0.0331499 0.0498331 0.196275
231 1 3 12.5166 58.0949 0.595803 0.0351816 -0.0143057 -0.1825
232 1 1 9.95393 56.4168 2.39871 0.0310778 0.103688 -0.14861
233 1 3 9.69217 56.2455 3.28158 0.0242062 0.00732871 0.0624375
234 1 1 10.4671 57.1847 2.39429 -0.205696 -0.0961975 0.0495162
235 1 3 9.60691 56.111 4.05715 -0.114966 0.130623 -0.106968
236 1 1 9.37999 55.1362 4.65041 -0.0282584 0.282777 0.0353765
237 1 3 10.9754 52.5089 6.98459 0.157882 0.0102033 -0.0731542
238 1 1 11.794 52.3811 7.70314 0.15601 0.00403426 0.03945
239 1 3 12.7023 51.9115 8.05331 0.0758498 0.0230846 -0.00286687
240 1 1 13.6517 51.5731 8.30231 0.0435995 0.0288951 -0.22023
241 1 3 14.6091 51.3062 8.47831 0.0438256 0.0880273 -0.0652062
242 1 1 15.7128 51.2954 8.51519 0.0384127 0.145935 0.100555
243 1 3 16.7523 51.3667 8.63698 -0.0371798 -0.0208574 -0.0302744
244 1 1 9.75812 54.365 5.91265 -0.069462 -0.00356265 -0.0671822
245 1 3 9.60761 55.1278 5.51299 0.0968576 -0.0234222 0.0468202
246 1 1 10.5636 53.3353 7.04754 -0.0202794 -0.0504885 -0.0688973
247 1 3 10.2646 54.1589 6.79889 -0.0862479 0.0189555 -0.0697156
248 1 1 15.9471 57.2115 61.7239 -0.2523 0.15367 -0.0407159
249 1 3 16.5676 56.9946 61.9339 -0.0333361 -0.00483381 -0.0975661
250 1 1 17.7183 56.1913 0.523082 -0.250823 0.0231724 -0.132796
251 1 3 17.1224 56.9639 0.441289 -0.00431455 0.0657388 -0.116409
252 1 1 18.315 56.0596 1.19383 -0.0369196 -0.0679832 0.036046
253 1 3 18.7092 55.247 1.39382 0.142999 -0.161823 0.190504
254 1 1 17.7922 51.5768 8.74777 -0.0539274 -0.0173701 -0.109507
255 1 3 18.34 51.6635 7.92753 0.161808 0.0583668 0.0547222
256 1 1 18.7889 51.8712 7.0475 -0.0478566 0.132392 0.104503
257 1 3 19.1904 55.1044 2.08158 -0.107736 0.0665853 0.157579
258 1 1 19.3799 54.3339 2.47574 -0.133955 0.173124 -0.104944
259 1 3 19.3042 53.633 2.83516 0.0176752 -0.0467473 -0.10355
260 1 1 19.3897 53.218 3.55962 -0.0265089 -0.170635 0.19056
261 1 3 19.3894 52.8432 4.27835 0.0424265 -0.0878639 0.146714
262 1 1 19.2867 52.3364 5.23388 -0.0419706 0.0513745 -0.0725584
263 1 3 19.0284 51.9882 6.14332 0.0792751 -0.0650454 0.0579347
264 1 1 15.6574 57.8298 0.0789336 -0.178326 -0.116707 -0.0618074
265 1 3 14.9337 58.0906 0.157087 -0.121857 0.0951142 0.0637056
266 1 1 14.0748 58.4987 0.519151 -0.01422 -0.0199513 -0.126192
267 1 3 11.0037 57.9481 2.50376 -0.0274209 0.0538787 0.178271
268 1 1 11.7903 58.4901 1.99792 0.0694372 0.108725 0.178048
269 1 3 12.499 58.6422 1.37281 -0.0770753 0.00230429 -0.13696
270 1 1 13.2079 58.6324 0.889733 -0.0404713 0.0631673 -0.327506
271 1 3 10.1829 56.994 3.09664 -0.0620856 -0.0371607 -0.0606607
272 1 1 9.94023 56.6985 3.77657 0.022556 -0.0339435 0.146537
273 1 3 10.5612 57.5883 3.14594 0.132608 -0.0351652 0.118906
274 1 1 10.0225 56.6939 4.53588 -0.110049 -0.0541812 0.0140346
275 1 3 9.72484 55.9522 4.9945 0.0809661 -0.0796898 0.0571872
276 1 1 11.1441 53.2528 7.7524 -0.212082 0.0705767 0.198005
277 1 3 11.6573 53.22 8.28974 0.00373401 0.150021 -0.00490032
278 1 1 12.3879 52.6889 8.52977 0.00232962 -0.0390937 0.044624
279 1 3 13.2107 52.2543 8.81564 -0.0452922 -0.0271479 -0.00400443
280 1 1 14.1092 51.8835 9.09826 -0.0312435 -0.0308747 -0.0481196
281 1 3 15.0873 51.7085 9.22059 0.0700198 -0.0481791 0.229089
282 1 1 16.1579 51.6979 9.23582 -0.116992 -0.0978776 -0.0698417
283 1 3 17.2434 51.7966 9.44704 0.130136 -0.0268563 -0.044059
284 1 1 10.0432 55.0443 6.35324 0.112704 -0.0256705 -0.240478
285 1 3 10.0102 55.8374 5.96858 0.0028721 0.148037 -0.0511037
286 1 1 10.736 54.104 7.59588 -0.111786 0.147613 0.0857383
287 1 3 10.4469 54.9109 7.16112 -0.0630074 0.128276 0.0370098
288 1 1 16.4179 57.6887 0.49795 -0.087729 0.00336073 -0.0842507
289 1 3 17.69 56.8736 1.11716 0.00142617 0.121869 -0.0302091
290 1 1 17.2645 57.3528 0.992446 -0.117788 0.0506892 0.0304245
291 1 3 18.3342 52.0462 9.44366 -0.0297772 0.0288569 -0.0303734
292 1 1 18.4107 56.8042 1.7584 0.118226 0.0460298 -0.175807
293 1 3 18.898 56.089 1.88812 0.022624 0.0228507 0.126504
294 1 1 18.7874 51.974 8.66731 0.00649175 -0.19373 -0.181262
295 1 3 19.2418 52.1472 7.81765 -0.222388 0.129343 0.0671422
296 1 1 19.5465 52.3711 6.88865 -0.0774589 0.0381407 -0.138489
297 1 3 19.4402 55.7945 2.61859 0.165851 0.00169683 0.159032
298 1 1 19.5609 55.0341 2.72829 -0.12939 0.0514824 0.175874
299 1 3 19.7898 54.3104 3.41625 -0.078211 0.0667422 0.0416412
300 1 1 19.8759 53.7655 4.25055 -0.156507 -0.049089 -0.0147198
301 1 3 19.8031 53.1557 5.07001 -0.127881 -0.0628349 0.166467
302 1 1 19.726 52.699 5.97926 0.0251036 -0.02804 -0.242454
303 1 3 13.9356 59.0032 1.27354 0.167921 0.0153581 0.0594174
304 1 1 15.6472 58.2385 0.700755 0.0712286 -0.156 -0.117555
305 1 3 14.8285 58.6996 0.950827 0.198113 -0.115099 -0.00599928
306 1 1 10.9936 58.073 3.46783 0.0641759 0.175991 0.0015949
307 1 3 11.5992 58.5667 2.88628 0.0318685 -0.135164 -0.0107685
308 1 1 12.3688 58.9592 2.29571 0.227802 0.00331663 0.145588
309 1 3 13.1368 59.0594 1.72794 -0.00527879 -0.0805132 -0.0733759
310 1 1 10.5126 57.4462 3.98958 -0.107738 -0.0832179 -0.0403309
311 1 3 10.4943 57.2157 4.91294 -0.0404968 -0.027218 -0.0619646
312 1 1 10.2546 56.6668 5.58874 -0.088868 -0.0217303 0.0234124
313 1 3 11.3443 53.9768 8.36758 0.0252206 -0.0146597 -0.0365244
314 1 1 12.0417 53.4991 8.84804 -0.0542504 0.116642 -0.0663958
315 1 3 12.8724 53.0883 9.29762 -0.00914445 0.0362332 0.225227
316 1 1 13.673 52.6379 9.58085 0.025935 0.04083 -0.047358
317 1 3 14.5433 52.3248 9.81687 0.0448697 -0.0202152 0.0655586
318 1 1 15.5394 52.1569 9.94374 0.00369333 0.000683437 -0.0513587
319 1 3 16.6325 52.0949 10.1092 0.101477 -0.113093 -0.117766
320 1 1 17.7154 52.192 10.1839 0.0956714 -0.110585 0.199493
321 1 3 10.3756 55.6636 6.89626 0.0220797 0.0131619 0.119911
322 1 1 10.3627 56.2621 6.55128 0.0339731 -0.0275978 0.0631723
323 1 3 10.9352 54.8685 8.01782 -0.014612 -0.0461153 -0.124404
324 1 1 10.7107 55.5168 7.58909 -0.0800635 -0.105204 0.0117588
325 1 3 16.2294 58.3504 1.17079 -0.0724952 0.0707372 0.135128
326 1 1 16.8831 58.0317 1.26517 -0.0361653 0.025271 0.0770666
327 1 3 17.7742 57.5954 1.74883 -0.0479535 -0.113904 0.0282484
328 1 1 18.5932 57.3684 2.27932 -0.053278 -0.304889 0.140116
329 1 3 18.6964 52.5198 10.2 0.221745 0.0556627 0.174788
330 1 1 19.2695 52.4544 9.43835 0.0343437 0.110358 0.104286
331 1 3 19.1825 56.7658 2.5131 0.0294105 0.049422 -0.0451845
332 1 1 19.7152 52.5656 8.55489 -0.00578316 -0.10285 0.187401
333 1 3 19.9851 52.7629 7.68744 0.119727 0.181742 0.0447667
334 1 1 20.2327 53.0764 6.78548 -0.025814 -0.116045 -0.00624365
335 1 3 19.6393 56.3032 3.11915 -0.123471 0.176856 0.0145859
336 1 1 19.9359 55.4693 3.5227 -0.0202815 -0.0100551 -0.126315
337 1 3 20.2268 54.7509 4.25529 -0.0483273 0.164426 0.0915315
338 1 1 20.2999 54.0172 5.07216 0.123012 -0.00667661 0.135996
339 1 3 20.3393 53.4956 5.8473 -0.0899941 0.148028 0.0247614
340 1 1 11.1595 58.2209 4.12476 0.0449608 0.00556491 0.100746
341 1 3 13.8588 59.4155 2.18882 0.0327117 0.0178552 0.156432
342 1 1 14.6283 59.2201 1.77319 0.112095 0.0306849 0.0414778
343 1 3 15.6015 58.917 1.52019 0.115091 0.0686933 0.253238
344 1 1 11.568 58.6753 3.77793 -0.110727 -0.0286018 -0.0142996
345 1 3 12.2847 59.1787 3.27917 -0.0629676 0.0160891 -0.221823
346 1 1 13.0272 59.3951 2.73327 -0.119922 0.0768235 -0.0676687
347 1 3 13.7622 59.6909 3.06428 0.0171947 0.143264 -0.208539
348 1 1 10.8398 57.7673 4.76016 -0.0230235 0.0241277 0.103283
349 1 3 10.7733 57.6438 5.59111 -0.0420923 -0.212864 -0.0786566
350 1 1 10.7219 57.0769 6.51839 -0.110643 -0.0602931 -0.0161087
351 1 3 11.3251 54.839 8.66142 0.0638822 0.0434184 0.0716634
352 1 1 11.8684 54.4173 9.21358 -0.0869396 0.115206 -0.247725
353 1 3 12.5175 53.9446 9.63261 0.204414 0.0987909 0.102409
354 1 1 13.2704 53.5037 10.0565 -0.00634762 -0.167125 0.0704598
355 1 3 14.0953 53.1432 10.3493 0.0121216 0.042688 -0.18837
356 1 1 14.9892 52.7673 10.5855 -0.00891675 0.0357387 -0.14549
357 1 3 15.966 52.5581 10.7025 0.00155863 -0.00635106 0.0311065
358 1 1 17.0692 52.5179 10.8605 -0.01326 0.0563662 -0.14215
359 1 3 18.1277 52.6841 10.9768 0.0813361 -0.056607 -0.12757
360 1 1 10.8472 56.4452 7.47107 -0.0863883 -0.00937818 -0.0572754
361 1 3 11.1399 55.829 8.46035 -0.0404895 -0.0650359 -0.0714401
362 1 1 16.5431 58.6855 1.72926 0.0251404 -0.116577 0.333086
363 1 3 17.3142 58.3966 2.08787 -0.0275093 0.294042 0.0129241
364 1 1 18.2465 58.1045 2.57921 -0.0638618 0.0727227 0.15096
365 1 3 18.9765 57.6568 2.89303 -0.20359 0.116098 -0.0789871
366 1 1 19.1785 52.8577 10.9489 0.0340021 0.0375243 -0.153331
367 1 3 19.7474 52.8406 10.2098 -0.0110765 0.148393 0.0713607
368 1 1 20.2019 52.9843 9.37505 0.0354677 -0.0953035 0.00507322
369 1 3 19.5597 57.1253 3.35073 -0.0332592 0.120261 0.0726608
370 1 1 20.5293 53.1241 8.42251 -0.0629466 0.105604 0.0879325
371 1 3 20.7469 53.3881 7.54768 -0.10226 0.0388342 0.0311691
372 1 1 20.836 53.8818 6.63702 0.118326 0.0339407 -0.0273754
373 1 3 20.0211 56.4858 3.8709 0.0528716 -0.0174761 0.0612667
374 1 1 20.4008 55.7875 4.3611 0.00845789 0.119224 -0.0613103
375 1 3 20.6214 55.0579 5.0568 -0.0118206 -0.0195982 -0.109246
376 1 1 20.7627 54.4192 5.81152 0.100608 -0.0524931 0.0417388
377 1 3 11.5174 58.6523 4.77601 0.0643795 -0.0708219 0.140408
378 1 1 14.5591 59.6213 2.63754 0.162758 -0.0986912 0.139995
379 1 3 15.1832 59.438 2.26699 0.0725853 -0.00234369 0.210957
380 1 1 16.0476 59.3492 2.43484 0.0981844 -0.204751 0.0107252
381 1 3 12.2629 59.1883 4.20267 -0.221095 -0.147069 0.00312603
382 1 1 12.995 59.5374 3.63884 -0.139405 -0.073311 -0.0477077
383 1 3 13.7948 59.8621 3.96333 -0.11213 0.0969177 -0.0787039
384 1 1 14.4462 59.8654 3.32916 0.0591522 -0.00930593 0.137677
385 1 3 11.23 58.225 5.62014 0.0372981 -0.0572473 -0.0340367
386 1 1 11.1212 57.9097 6.59852 0.044259 -0.102483 0.000526824
387 1 3 11.0872 57.5325 7.38113 -0.0840463 0.136355 -0.0376533
388 1 1 11.6136 55.2712 9.18145 -0.122492 -0.159743 -0.0762205
389 1 3 12.2375 54.8525 9.92648 -0.188462 -0.0266103 -0.215685
390 1 1 12.9193 54.3277 10.4094 0.180762 0.206831 0.117549
391 1 3 13.7176 53.9749 10.8692 0.050105 0.194095 -0.124507
392 1 1 14.5708 53.4899 11.1323 -0.0612583 -0.293065 0.0591857
393 1 3 15.491 53.1854 11.3814 -0.00399378 -0.0295808 0.230736
394 1 1 16.4567 53.0128 11.5234 0.0896177 -0.0319061 0.0346655
395 1 3 17.5395 52.9537 11.5686 0.0242932 -0.0319565 0.0179688
396 1 1 18.6209 53.0349 11.7476 0.0587054 0.095553 0.0932837
397 1 3 11.2167 56.9437 8.3084 -0.0897432 -0.00450362 -0.0906517
398 1 1 11.573 56.371 9.17908 0.0150589 -0.18853 0.0399458
399 1 3 16.8855 59.1728 2.60069 -0.0957515 0.0910679 -0.0615565
400 1 1 17.7854 58.8101 2.84075 -0.133524 -0.0120399 0.10222
401 1 3 18.5974 58.4356 3.3012 0.0655346 -0.09465 -0.104355
402 1 1 19.6453 53.1379 11.777 0.00482379 0.0599085 0.0974544
403 1 3 19.3554 57.97 3.71837 -0.00360466 0.122814 -0.0483238
404 1 1 20.214 53.181 10.9952 0.0706994 -0.00254611 -0.180798
405 1 3 20.6548 53.2924 10.1442 0.208428 0.00539258 0.0688563
406 1 1 21.0555 53.5449 9.19126 -0.107538 -0.0122855 -0.107121
407 1 3 19.9756 57.5016 4.14365 -0.0806533 0.0351932 -0.00828161
408 1 1 21.2369 53.8464 8.24755 0.00213345 0.0946888 0.12053
409 1 3 21.3679 54.3367 7.36804 0.0364685 0.065515 -0.114812
410 1 1 21.2722 54.8419 6.54378 0.00171535 -0.12669 -0.116627
411 1 3 20.5204 56.7827 4.5719 -0.0826345 -0.00191197 -0.0104302
412 1 1 20.869 56.113 5.18165 0.29569 -0.088847 0.146062
413 1 3 21.0853 55.5497 5.85547 -0.0188196 -0.0926521 -0.0486919
414 1 1 12.2526 59.2242 4.91104 -0.103771 -0.107709 0.0575613
415 1 3 11.9695 59.0255 5.70284 -0.0737237 -0.137146 -0.0544285
416 1 1 15.3797 59.9023 3.12299 0.0626749 0.210335 -0.0281991
417 1 3 16.4544 59.7653 3.29725 -0.0124698 0.088045 -0.00200684
418 1 1 12.9844 59.6529 4.56653 0.0665979 0.130721 -0.0847696
419 1 3 13.8511 60.0112 4.65114 -0.0902042 -0.122866 -0.048833
420 1 1 14.7404 60.1345 4.14155 0.000363918 0.0164526 0.0394375
421 1 3 11.612 58.6884 6.46724 0.0669586 -0.0231014 0.158027
422 1 1 11.4961 58.4041 7.37318 -0.0111737 0.00374399 0.030619
423 1 3 11.4695 57.9052 8.2814 0.0579337 0.0572896 0.0925382
424 1 1 12.0095 55.7875 9.91515 -0.163241 -0.184226 -0.081372
425 1 3 12.6081 55.3108 10.6536 0.157961 -0.0819237 0.224479
426 1 1 13.4016 54.7524 11.1233 -0.0617907 0.0217555 -0.0552532
427 1 3 14.223 54.3043 11.5823 -0.196866 -0.0768699 -0.018142
428 1 1 15.0527 53.8607 11.8793 0.172216 0.0556781 0.0542038
429 1 3 19.1563 53.3659 12.5256 -0.166831 -0.0380257 -0.0276577
430 1 1 16.0103 53.6144 12.1099 -0.0218958 -0.17087 0.0487052
431 1 3 16.9796 53.4419 12.2665 0.21698 0.0650247 -0.0672362
432 1 1 18.0713 53.2686 12.3535 0.0945395 -0.0524683 -0.0219284
433 1 3 11.6037 57.3192 9.13618 -0.00412521 0.0320374 0.0326264
434 1 1 11.951 56.7087 9.95949 -0.0325618 -0.128226 0.0860823
435 1 3 17.364 59.5063 3.39253 0.108481 -0.0890385 -0.0287169
436 1 1 18.2011 59.2219 3.69949 -0.0725346 0.156381 -0.12383
437 1 3 19.0786 58.8433 4.08208 0.0257308 -0.0504598 -0.128689
438 1 1 20.1148 53.5679 12.5459 -0.0972201 0.221282 0.0687347
439 1 3 20.6683 53.5437 11.7656 -0.0573322 0.0338631 0.0103268
440 1 1 19.8321 58.3248 4.54255 0.104121 0.110561 0.0971844
441 1 3 21.1316 53.6817 10.9366 -0.0746045 0.0821975 -0.0974247
442 1 1 21.467 53.8846 9.98931 -0.205262 0.0760947 -0.120395
443 1 3 21.7221 54.1963 9.0875 -0.0740822 -0.213383 0.15955
444 1 1 20.4426 57.7221 4.97504 0.101174 -0.123215 0.0813913
445 1 3 21.8428 54.6299 8.15705 0.214948 -0.0842632 0.0092159
446 1 1 21.7711 55.1762 7.35021 0.0111958 -0.0344477 -0.101673
447 1 3 21.598 55.7917 6.59204 -0.0562735 -0.073714 0.131949
448 1 1 20.9918 57.1278 5.34618 -0.032684 -0.100084 -0.0145001
449 1 3 21.3347 56.6057 5.94318 -0.0534232 0.02127 0.0032594
450 1 1 12.6468 59.6022 5.41176 -0.163273 0.0599685 -0.0659987
451 1 3 12.3414 59.418 6.4333 0.0757687 0.0646931 0.0710886
452 1 1 15.8627 60.2513 4.05357 -0.027786 -0.202611 -0.0738672
453 1 3 16.8846 60.052 4.12719 -0.169368 -0.0689763 0.0698699
454 1 1 13.4805 60.0704 5.40803 -0.0556392 -0.0312899 -0.190498
455 1 3 14.3953 60.3404 5.08234 0.0441736 0.214315 0.0455205
456 1 1 15.3176 60.5391 4.88554 0.164257 -0.0994257 -0.0272252
457 1 3 12.1177 59.1296 7.25614 0.122606 -0.0838004 0.0657287
458 1 1 12.0227 58.8258 8.27266 -0.00576568 -0.00990944 -0.0234342
459 1 3 11.9442 58.2917 9.10483 -0.0819349 -0.00580578 0.119879
460 1 1 12.5283 56.2338 10.7567 -0.0435858 -0.0190197 -0.0585982
461 1 3 13.1289 55.6758 11.3947 0.0536279 0.20721 -0.0415965
462 1 1 13.8647 55.1404 11.9183 -0.0490087 -0.166321 -0.137214
463 1 3 14.6609 54.6974 12.3161 0.0650948 0.0148256 -0.0598255
464 1 1 15.5167 54.3058 12.616 0.0649865 -0.029214 0.0341479
465 1 3 19.5318 53.8037 13.2555 -0.0387626 -0.000861292 0.0473099
466 1 1 18.5031 53.6673 13.1321 -0.0125912 -0.142254 -0.0876337
467 1 3 16.4708 54.0143 12.8746 -0.00158718 0.0309591 -0.0864211
468 1 1 17.4522 53.7673 13.0045 -0.202677 -0.052668 0.0108691
469 1 3 12.1 57.664 9.96468 0.129509 -0.0226597 0.0661336
470 1 1 12.4588 57.1576 10.7586 -0.0487383 -0.0320119 0.0384454
471 1 3 17.7845 59.8609 4.29215 -0.020235 0.152708 0.00308876
472 1 1 18.7124 59.5683 4.63977 -0.100929 -0.141936 -0.00663079
473 1 3 19.5304 59.1706 5.04645 -0.203578 -0.0270023 0.0842386
474 1 1 20.6019 54.0651 13.3033 0.0493003 0.00373832 -0.00893213
475 1 3 21.1426 53.9379 12.4884 0.175917 -0.0494528 0.143164
476 1 1 21.6353 54.0494 11.6779 0.02583 0.0533874 0.0339055
477 1 3 20.2293 58.7252 5.40037 -0.141374 -0.0742044 0.0192333
478 1 1 21.9524 54.2349 10.7907 -0.0154994 -0.176983 0.185466
479 1 3 22.1866 54.6483 9.92267 -0.00785201 -0.1476 0.0746813
480 1 1 22.2254 55.0536 9.00018 0.138077 -0.0525505 -0.15986
481 1 3 20.8914 58.1429 5.76654 -0.0439939 0.0491775 -0.0230317