ITEM: TIMESTEP
0
ITEM: NUMBER OF ATOMS
44148
ITEM: BOX BOUNDS pp pp pp
0 62
0 62
0 62
ITEM: ATOMS id mol type x y z vx vy vz 
1 1 3 6.12919 28.6103 22.3675 0.191998 0.143022 -0.0381814 
2 1 1 6.37446 27.9382 22.8546 0.101767 -0.233565 -0.0259905 
3 1 3 7.01885 28.5165 22.3801 0.0806176 -0.0081082 0.239634 
4 1 1 7.27809 27.7724 22.8384 -0.0310002 -0.0917431 -0.103959 
5 1 3 6.66965 29.1606 21.7992 -0.125604 0.0635501 0.196852 
6 1 1 7.9335 28.3302 22.2429 -0.0249363 -0.0660114 -0.0599482 
7 1 3 8.27367 27.4984 22.632 -0.106772 -0.0735796 -0.122858 
8 1 1 5.45142 28.1317 22.6469 0.0031537 -0.0451391 -0.0310748 
9 1 3 5.64646 27.3028 23.1326 0.00852076 0.00623302 0.0552393 
10 1 1 6.57068 27.1619 23.2269 -0.0578456 -0.0263885 0.0166019 
11 1 3 7.48408 26.9835 23.146 0.0210677 0.027204 0.0686501 
12 1 1 8.24968 26.5877 23.0032 -0.0178226 0.0338255 -0.0827913 
13 1 3 5.29023 28.8551 22.0045 -0.0435019 -0.0981075 -0.181171 
14 1 1 5.92838 29.1736 21.7856 0.14224 0.0499761 0.0503856 
15 1 3 6.13304 29.6046 21.2113 0.0329645 0.0570754 -0.0170174 
16 1 1 7.57388 29.0214 21.7253 -0.0808528 -0.0888707 0.00957557 
17 1 3 7.10503 29.6023 21.0893 0.0471445 0.024263 0.034519 
18 1 1 8.87025 26.8093 22.6012 0.0408131 -0.0951222 0.166253 
19 1 3 9.15995 27.3894 22.1268 0.072028 0.0720968 0.0454085 
20 1 1 8.80863 28.0802 21.9261 -0.0409313 -0.096128 -0.134848 
21 1 3 8.46959 28.7734 21.5033 -0.0827828 -0.102408 0.114699 
22 1 1 4.59287 28.8355 21.7397 -0.0394022 0.0924624 -0.0662065 
23 1 3 4.67816 28.1133 22.4204 -0.100415 -0.0659686 0.0119254 
24 1 1 4.78888 27.3402 22.9079 0.13343 -0.0883102 0.0272796 
25 1 3 4.96002 26.6141 23.223 0.114218 -0.0944725 0.070188 
26 1 1 5.86507 26.3989 23.4428 -0.0180119 -0.125263 -0.100369 
27 1 3 6.78743 26.2109 23.4725 0.05701 -0.0824527 0.146759 
28 1 1 8.94306 26.037 22.7544 -0.176951 -0.0638656 -0.148776 
29 1 3 7.59935 25.938 23.3609 -0.00942341 -0.0659451 0.0553101 
30 1 1 8.35394 25.5696 23.1193 -0.095999 -0.0399374 -0.0854459 
31 1 3 5.16625 29.4441 21.23 0.116255 0.199492 0.135557 
32 1 1 5.78401 29.8955 20.6174 -0.0502451 -0.158956 0.0807811 
33 1 3 6.60519 29.9736 20.4761 -0.0323663 0.0163892 0.0121095 
34 1 1 8.04684 29.4378 20.8703 -0.0141567 0.120773 -0.133985 
35 1 3 7.43751 29.9278 20.2534 -0.0622214 0.0460358 0.0336731 
36 1 1 9.45307 26.5423 22.2593 -0.0639612 -0.0741911 0.0347778 
37 1 3 9.86532 27.0046 21.6575 -0.0453967 0.141724 -0.0229843 
38 1 1 9.58767 25.6805 22.3157 -0.110712 -0.17822 -0.115964 
39 1 3 9.61863 27.7885 21.4051 0.104514 0.0779515 0.11456 
40 1 1 9.33524 28.4171 21.0986 -0.201294 0.0134253 -0.0717127 
41 1 3 8.92016 29.1165 20.565 0.000111915 -0.101825 0.00905774 
42 1 1 4.24307 29.1253 21.1467 -0.00799552 -0.0108782 0.0602865 
43 1 3 3.67553 28.4683 21.4856 -0.0511882 -0.113574 -0.01549 
44 1 1 3.88246 27.9911 22.0737 -0.0220828 0.0906725 -0.0139956 
45 1 3 4.13804 27.4745 22.5563 0.0578509 0.0202342 -0.100091 
46 1 1 4.05579 26.76 22.8162 0.0481164 -0.109141 0.141937 
47 1 3 4.17312 25.9811 23.0551 -0.0560216 0.104145 0.0134407 
48 1 1 5.10861 25.7268 23.4134 0.0586297 0.104516 -0.115169 
49 1 3 6.10085 25.4556 23.5652 -0.0213831 0.104579 -0.0997404 
50 1 1 6.96255 25.1992 23.5224 -0.0984399 0.115489 -0.0291775 
51 1 3 9.02029 25.1628 22.7543 -0.0142961 -0.0103359 0.0111163 
52 1 1 7.76574 24.9324 23.3288 0.0130365 -0.0344035 -0.0506387 
53 1 3 8.45966 24.8469 23.0451 -0.0610119 0.152715 -0.013114 
54 1 1 4.44752 29.557 20.5731 0.0213146 -0.0229163 0.109299 
55 1 3 3.55948 29.1627 20.3289 0.170123 -0.0199515 -0.170013 
56 1 1 5.0858 29.876 20.3538 -0.0191837 0.0541234 -0.0992275 
57 1 3 5.8415 30.1557 19.9203 0.0375236 -0.0657682 -0.0372646 
58 1 1 4.51109 29.9132 19.6316 0.013008 -0.074271 0.0492441 
59 1 3 6.76411 30.2328 19.5978 -0.0251446 0.0980645 -0.102993 
60 1 1 8.34618 29.7052 19.9517 -0.0645884 0.323167 -0.127368 
61 1 3 7.59564 30.1284 19.3308 0.0598552 0.0272954 -0.0692346 
62 1 1 10.129 27.3736 21.0673 -0.0351485 -0.0987652 -0.0293004 
63 1 3 10.0621 26.1661 21.7553 -0.0288914 -0.0696019 -0.130667 
64 1 1 10.4325 26.6128 21.0792 0.110182 0.125447 -0.19435 
65 1 3 9.55955 24.7639 22.3074 0.0404285 -0.150111 0.00388967 
66 1 1 10.1334 25.2878 21.7707 0.107287 -0.12911 0.0138664 
67 1 3 10.0499 27.9124 20.6615 -0.0185261 0.0815521 0.102159 
68 1 1 9.69277 28.6512 20.1833 0.320709 -0.228027 -0.0655228 
69 1 3 9.14952 29.3234 19.6381 0.0201861 0.262838 -0.084272 
70 1 1 3.39928 28.6621 20.9644 0.031233 0.102237 0.117817 
71 1 3 3.12731 27.9685 21.4306 -0.112898 0.0596617 0.0291379 
72 1 1 3.27666 27.1097 22.155 0.030818 -0.0246794 0.0141259 
73 1 3 3.3486 26.1874 22.5244 -0.0324712 -0.0336569 -0.0104928 
74 1 1 3.59634 25.3854 22.7789 0.0929761 0.0239003 0.0042387 
75 1 3 4.41538 25.0816 23.194 0.105967 0.135278 -0.0432979 
76 1 1 5.3761 24.7783 23.4498 0.11905 0.12386 -0.034765 
77 1 3 6.34274 24.5083 23.4958 -0.0488571 -0.00773697 0.0176617 
78 1 1 7.13531 24.2404 23.3685 -0.219177 0.0318777 0.0594427 
79 1 3 8.88594 24.3116 22.7132 0.0417682 0.163532 -0.0249286 
80 1 1 8.01262 23.9752 23.0551 0.0558608 -0.0758305 -0.200555 
81 1 3 9.41876 23.8718 22.177 0.112237 0.020328 0.113255 
82 1 1 2.81864 28.6391 20.0538 0.137791 0.0801345 -0.128306 
83 1 3 3.80828 29.5721 19.6247 0.0133685 -0.0407025 0.0891841 
84 1 1 3.18638 29.1372 19.6254 -0.0306514 -0.244808 -0.13588 
85 1 3 5.05288 30.1342 19.4077 -0.00379441 -0.0117863 -0.127848 
86 1 1 5.94149 30.331 19.0074 -0.00289452 0.0828849 -0.0994855 
87 1 3 4.35598 29.9614 18.9009 -0.0825845 -0.0347529 0.0053803 
88 1 1 6.87516 30.3283 18.6332 0.000747342 -0.130891 -0.0753332 
89 1 3 8.48998 29.8339 18.9769 -0.00476648 -0.181983 -0.104599 
90 1 1 7.66764 30.1618 18.3053 0.0816493 -0.0949876 0.11773 
91 1 3 10.6053 27.2506 20.2569 -0.147416 -0.00671543 -0.025936 
92 1 1 10.5795 25.8037 21.1066 -0.176584 0.0957049 0.116811 
93 1 3 10.8732 26.3005 20.3444 -0.00754427 -0.11826 0.0580707 
94 1 1 10.0877 24.3831 21.6754 -0.192197 0.0501765 0.0165873 
95 1 3 10.6109 24.9336 21.0546 -0.0647227 -0.199321 0.0716548 
96 1 1 10.3364 28.061 19.7389 0.202329 -0.0154756 0.0585222 
97 1 3 9.85712 28.8011 19.2599 0.0177479 0.00773866 -0.303451 
98 1 1 9.20375 29.4262 18.5792 -0.026314 0.16991 -0.00563844 
99 1 3 2.66606 28.0733 20.6904 -0.127622 -0.153755 -0.0779887 
100 1 1 2.50816 27.2176 21.2588 -0.0133391 0.016774 0.0167176 
101 1 3 2.57052 26.3542 21.7564 -0.0370899 0.119459 0.176501 
102 1 1 2.76831 25.4708 22.1126 -0.139277 0.111844 -0.0272895 
103 1 3 3.86511 24.6319 22.8775 0.0293776 0.0586862 -0.17291 
104 1 1 3.25175 24.6983 22.4807 0.129219 0.0421914 -0.106123 
105 1 3 4.62045 24.053 23.0949 -0.122639 -0.0983013 0.0796191 
106 1 1 5.72227 23.8491 23.3003 -0.0467617 0.00159265 -0.0205412 
107 1 3 6.58464 23.5941 23.237 0.0795676 0.127831 0.114765 
108 1 1 7.24502 23.4567 23.0924 -0.143562 -0.0248854 -0.0126012 
109 1 3 9.94147 23.4567 21.5208 0.0234094 0.121463 0.105304 
110 1 1 8.62895 23.4175 22.5396 -0.0686557 -0.00752066 -0.0828068 
111 1 3 7.7495 23.0388 22.7495 0.0642759 -0.124624 0.030958 
112 1 1 9.2249 22.9539 21.9317 0.0222697 0.0340619 0.0814753 
113 1 3 2.70698 28.799 19.1518 -0.111329 -0.161199 -0.104549 
114 1 1 2.30479 28.1303 19.7704 0.0856442 -0.0107976 -0.0723258 
115 1 3 3.39324 29.4366 18.6453 -0.038656 0.0684654 0.0504433 
116 1 1 2.73962 28.863 18.2055 0.0193125 -0.148921 0.0383665 
117 1 3 5.06702 30.2089 18.4301 -0.109602 -0.0692528 -0.165066 
118 1 1 6.00324 30.3225 17.9996 -0.0824052 -0.0311391 -0.0355258 
119 1 3 4.23111 29.874 17.9261 -0.216661 0.0241415 0.0173043 
120 1 1 6.95512 30.2314 17.6393 -0.251281 -0.0736656 -0.092416 
121 1 3 8.49042 29.8106 17.9569 -0.107246 0.128946 0.052247 
122 1 1 7.64885 30.0213 17.3595 0.0578114 0.021437 0.0300123 
123 1 3 10.8254 27.366 19.2483 -0.142027 0.013391 0.0781763 
124 1 1 10.9864 26.7185 19.6396 -0.216078 -0.0056619 -0.0420351 
125 1 3 10.9687 25.5008 20.3386 0.0668246 -0.0871393 -0.167791 
126 1 1 11.1456 26.0607 19.5547 -0.0935948 0.0167952 -0.100668 
127 1 3 10.519 23.9693 20.9885 0.0906212 0.0528992 0.0542633 
128 1 1 10.96 24.4523 20.3375 -0.00523117 0.0012343 0.149667 
129 1 3 10.4213 23.093 20.8596 -0.0218558 -0.0221441 -0.140937 
130 1 1 9.1473 29.3533 17.607 -0.0717904 -0.0231655 0.267491 
131 1 3 10.4659 28.1055 18.8482 -0.13401 0.0586457 -0.0722493 
132 1 1 9.85563 28.8292 18.0345 0.0852623 0.0836259 -0.0876692 
133 1 3 2.07148 27.3802 20.3343 0.0695969 0.0437046 0.0798696 
134 1 1 2.04931 26.549 20.932 -0.038668 0.116973 -0.190914 
135 1 3 2.69948 24.5863 21.9564 0.089724 -0.0370213 0.0742809 
136 1 1 2.14779 25.7499 21.3364 0.0468422 -0.0663064 0.104051 
137 1 3 2.2439 24.9487 21.4714 -0.0219421 -0.0444569 -0.031914 
138 1 1 3.71291 23.9193 22.5999 -0.0930474 0.0680777 -0.0987232 
139 1 3 3.00495 23.9964 22.0772 0.0513456 -0.00375146 -0.0573254 
140 1 1 4.28141 23.1933 22.5971 -0.0777119 0.0531009 0.00656563 
141 1 3 5.24035 23.1547 22.9296 0.0975211 0.0489991 0.154078 
142 1 1 6.01388 23.1709 23.0548 -0.0357423 0.00829003 -0.0415286 
143 1 3 6.81437 22.7474 22.7993 0.0307401 -0.0662401 0.00434271 
144 1 1 9.76902 22.5543 21.3273 -0.0273826 0.00307751 -0.105869 
145 1 3 8.3606 22.6334 22.2814 -0.0950381 -0.026379 -0.0094761 
146 1 1 7.66778 22.4356 22.4358 0.130727 0.040622 -0.125319 
147 1 3 8.99711 22.1043 21.6785 -0.188307 -0.0328194 -0.0527024 
148 1 1 2.21806 28.255 18.7623 0.0450649 -0.00833141 -0.0343127 
149 1 3 1.82492 27.4732 19.3373 0.0348186 0.11634 -0.0961891 
150 1 1 3.4745 29.3637 17.5356 0.0521399 0.0330609 -0.0507039 
151 1 3 2.22284 28.1923 17.9044 0.0866501 -0.0278014 -0.132182 
152 1 1 2.82469 28.6949 17.193 -0.104327 0.109075 0.148708 
153 1 3 5.1281 30.0988 17.4585 -0.0442347 -0.00751289 -0.0917219 
154 1 1 6.08252 30.1272 17.0589 0.00706888 -0.0403993 -0.0334964 
155 1 3 4.3066 29.6994 17.0612 -0.0343018 -0.0579119 0.0661691 
156 1 1 7.03838 29.944 16.7059 0.030392 -0.140319 -0.0290549 
157 1 3 8.42455 29.6206 17.0426 0.0447734 -0.0125129 0.136955 
158 1 1 7.73698 29.7484 16.6479 -0.0757014 0.0299943 -0.019448 
159 1 3 10.8424 27.4388 18.5216 0.13887 -0.127512 -0.0219986 
160 1 1 11.1376 26.594 18.732 0.0964462 0.197573 0.2016 
161 1 3 11.3334 25.6382 18.8751 -0.232093 0.153304 0.194328 
162 1 1 11.2749 25.0122 19.5136 0.0453351 0.0985519 -0.0233125 
163 1 3 10.9164 23.5385 20.2789 -0.0253307 -0.087195 -0.0311958 
164 1 1 11.2156 24.0067 19.7645 0.102713 -0.01071 -0.16083 
165 1 3 10.3367 22.2143 20.6543 0.190602 0.131359 0.125452 
166 1 1 10.7806 22.7908 20.3072 0.0690462 -0.0993342 -0.187973 
167 1 3 9.53651 28.8966 17.157 0.0572929 -0.0921511 -0.0510383 
168 1 1 8.95327 29.1844 16.745 0.0781899 -0.0536747 -0.0204828 
169 1 3 10.5575 27.89 17.9113 -0.0785809 -0.0127323 0.123592 
170 1 1 10.1059 28.2818 17.1744 0.0979594 -0.0750562 0.296345 
171 1 3 1.64035 26.6084 19.9115 0.00787024 0.00253184 0.112242 
172 1 1 1.65721 25.8057 20.3865 -0.18907 0.0316093 -0.0327292 
173 1 3 2.45014 24.1152 21.5115 0.272397 0.00613789 -0.0333634 
174 1 1 1.76724 25.0209 20.6623 -0.0627601 -0.0516338 -0.0127572 
175 1 3 2.03644 24.3725 20.9942 -0.0717983 0.12632 0.00166494 
176 1 1 2.75158 23.387 21.4907 -0.0913699 0.131705 0.0120819 
177 1 3 3.45811 23.2309 22.0907 -0.0388283 -0.188413 -0.0127432 
178 1 1 4.03575 22.5068 21.9927 -0.0166313 0.0715828 -0.0104306 
179 1 3 4.92122 22.4775 22.4137 -0.057604 -0.182257 0.0122333 
180 1 1 5.85849 22.5586 22.6861 -0.00741917 -0.0604412 0.097916 
181 1 3 6.35793 22.0018 22.3448 0.137293 -0.00467895 -0.0339052 
182 1 1 7.04008 21.933 22.2671 -0.254057 -0.0454907 -0.0296015 
183 1 3 9.60971 21.6301 21.0529 -0.0628 0.0185264 0.120092 
184 1 1 10.289 21.4739 20.423 0.117932 0.0669341 0.0701524 
185 1 3 8.034 21.7617 21.9396 0.0627471 -0.0687972 -0.0448282 
186 1 1 8.83619 21.3929 21.4086 -0.0194161 0.152734 -0.174321 
187 1 3 1.77012 27.4903 18.3875 0.0456136 -0.0705676 0.0186614 
188 1 1 1.47618 26.6604 18.9243 -0.0223929 -0.0345089 -0.216824 
189 1 3 3.63209 29.1655 16.7029 -0.0280073 -0.00195485 -0.144745 
190 1 1 3.22339 28.5896 16.2926 0.215973 -0.108676 -0.113179 
191 1 3 1.88336 27.525 17.6215 0.0493991 -0.00205693 -0.0915086 
192 1 1 2.23208 27.9072 17.1338 0.0136373 0.0260077 0.0773546 
193 1 3 2.67078 28.1266 16.5038 -0.035593 -0.0211038 -0.102794 
194 1 1 5.23454 29.8065 16.5287 -0.0978876 -0.174187 0.0384849 
195 1 3 6.16988 29.7384 16.1476 -0.00832552 0.0706848 -0.0857506 
196 1 1 4.51779 29.3574 16.1377 0.014458 -0.0544784 -0.147518 
197 1 3 7.2371 29.4734 15.8807 -0.037053 0.105074 -0.174041 
198 1 1 8.2086 29.3129 16.1747 -0.104082 0.146724 0.0895553 
199 1 3 10.9422 27.0807 17.9037 -0.225513 0.0100091 0.103584 
200 1 1 11.1515 26.4428 17.7666 0.134411 -0.0624825 -0.0323139 
201 1 3 11.3633 25.7789 18.1996 -0.0316339 -0.0442521 0.00802983 
202 1 1 11.506 24.963 18.5285 -0.014944 -0.099775 0.00914332 
203 1 3 11.5234 24.0335 18.9464 0.22162 -0.00817312 -0.0760349 
204 1 1 11.3191 23.055 19.479 -0.0291049 0.0633494 -0.00834193 
205 1 3 10.9547 21.9623 19.8402 0.169179 0.0862766 0.0881341 
206 1 1 9.53341 28.5467 16.4802 0.00688941 0.0702104 -0.119241 
207 1 3 8.83591 28.7275 15.8836 0.113444 -0.0525386 -0.0147254 
208 1 1 10.5681 27.5014 17.1011 -0.0602303 0.0100336 -0.0870328 
209 1 3 10.0306 27.8377 16.3544 -0.0930713 0.0112644 0.145446 
210 1 1 1.38706 25.7901 19.4359 0.0745251 0.0108941 0.00326032 
211 1 3 1.45128 25.0175 19.7641 0.00297383 0.136575 -0.0704182 
212 1 1 2.17918 23.6609 20.8411 -0.0244348 0.0148114 -0.190715 
213 1 3 1.69826 24.1329 20.1026 0.068078 -0.0064972 0.125553 
214 1 1 2.55644 22.8881 20.7805 -0.156466 0.00155621 0.109397 
215 1 3 3.23634 22.6451 21.4424 -0.023293 -0.0680606 -0.0974804 
216 1 1 10.606 20.9721 19.921 0.169709 0.0489005 -0.0791313 
217 1 3 9.85683 20.7794 20.4887 0.0359076 -0.060017 0.164397 
218 1 1 3.75699 21.9158 21.273 -0.095443 -0.0598067 -0.0647999 
219 1 3 4.55656 21.7863 21.7148 0.150027 -0.0880843 -0.150757 
220 1 1 5.53881 21.7612 22.0712 -0.0739481 -0.151216 0.0257582 
221 1 3 6.45567 21.3562 21.921 -0.315985 0.233703 0.138705 
222 1 1 7.26542 21.1163 21.7349 0.0511709 -0.0642636 0.0287394 
223 1 3 9.07848 20.8123 20.9881 -0.0324196 -0.0188198 0.167359 
224 1 1 8.20584 20.8425 21.3663 -0.166154 -0.128211 0.0698431 
225 1 3 1.30812 25.7501 18.5129 -0.140586 0.21356 0.0608523 
226 1 1 1.51284 26.633 17.8266 0.175805 -0.0975322 0.112407 
227 1 3 3.96455 28.7865 15.7626 0.154947 0.0137356 0.0692853 
228 1 1 3.45509 28.2551 15.6371 -0.0943858 0.180153 0.106425 
229 1 3 2.90777 27.8909 15.8926 0.0174566 -0.013101 -0.00075628 
230 1 1 1.88908 27.0892 16.9453 0.000642515 0.0959671 -0.0154856 
231 1 3 2.35746 27.5252 16.3657 0.0216608 0.158529 0.00978127 
232 1 1 5.38087 29.3413 15.6776 0.0767526 -0.0102525 0.19736 
233 1 3 6.2329 29.1775 15.3346 -0.0692014 -0.0800512 -0.106018 
234 1 1 4.79606 28.8498 15.3106 -0.0138518 0.171732 -0.0285188 
235 1 3 7.00702 28.8045 15.0104 -0.056931 -0.170396 0.0152378 
236 1 1 7.96348 28.8711 15.4217 0.0422745 0.0939347 -0.0758438 
237 1 3 10.9383 26.7159 17.1155 -0.0834617 0.0589879 0.111182 
238 1 1 11.3073 25.7961 17.1403 -0.00316361 0.0798575 -0.0543217 
239 1 3 11.5881 24.9632 17.667 0.0339832 0.157629 0.111012 
240 1 1 11.7252 24.0595 18.1088 0.0334191 -0.12599 -0.00792025 
241 1 3 11.7173 23.1323 18.5271 -0.0402215 0.0815341 -0.0598276 
242 1 1 11.5502 22.1592 18.9234 -0.0629809 0.0391724 0.0512102 
243 1 3 11.2497 21.19 19.2239 -0.0333776 -0.034919 0.0215419 
244 1 1 9.34901 28.0815 15.6933 0.0452111 0.137873 0.0133266 
245 1 3 8.55097 28.2199 15.1427 -0.0375112 0.0248541 0.0902411 
246 1 1 10.5088 26.9972 16.274 -0.119516 -0.105511 -0.04494 
247 1 3 9.89939 27.3116 15.593 0.308639 0.0135526 -0.0201478 
248 1 1 1.3233 24.9545 18.9264 -0.131536 0.0411893 -0.130428 
249 1 3 1.44446 24.3596 19.2499 -0.0609289 -0.0554854 0.16476 
250 1 1 2.01844 23.2263 20.0336 0.0688128 0.131561 -0.000127299 
251 1 3 1.64575 23.6484 19.232 -0.142642 -0.0671451 0.158651 
252 1 1 2.45566 22.3631 19.9703 0.160686 -0.0294435 -0.0412486 
253 1 3 3.05123 22.1005 20.685 0.0962181 0.112579 0.149604 
254 1 1 10.8578 20.216 19.3831 0.00280312 0.0419981 0.0829422 
255 1 3 10.132 20.0944 19.978 -0.0664053 -0.102528 0.0638496 
256 1 1 9.28916 20.0231 20.4778 -0.0306772 0.208852 0.149227 
257 1 3 3.56618 21.3747 20.5911 0.0546137 0.13513 0.0438715 
258 1 1 4.29015 21.197 21.0662 0.239261 0.0229331 0.0169865 
259 1 3 4.95052 21.186 21.4371 -0.0101933 -0.0199466 0.0538411 
260 1 1 5.74244 20.8124 21.4381 -0.100453 0.164066 0.0464071 
261 1 3 6.54504 20.5079 21.3581 0.0225338 -0.00398008 -0.0103949 
262 1 1 7.49065 20.3006 21.203 0.00712751 -0.00472966 0.173843 
263 1 3 8.39358 20.0926 20.8844 -0.0634058 0.134909 0.138351 
264 1 1 1.31806 25.0433 18.1983 0.0132097 0.0918364 -0.0583514 
265 1 3 1.39012 25.5624 17.6118 0.0380591 -0.0170073 0.0328816 
266 1 1 1.66336 26.1851 16.8684 0.122872 0.0461256 0.0383475 
267 1 3 4.20395 28.1499 14.9784 0.0121661 -0.0340567 -0.138801 
268 1 1 3.35913 27.6214 15.2071 0.150006 0.0937546 -0.0863853 
269 1 3 2.68948 27.1974 15.6255 -0.138646 -0.0423162 0.0949707 
270 1 1 2.10907 26.7065 16.1823 -0.219322 -0.148753 -0.0375721 
271 1 3 5.56204 28.7251 14.9374 0.0436395 -0.0792034 0.0174999 
272 1 1 6.27692 28.6371 14.7872 -0.0793596 0.200978 0.00602149 
273 1 3 5.05499 28.3093 14.72 -0.0471435 -0.00343968 0.0112704 
274 1 1 6.72753 28.1689 14.4503 -0.0281004 0.0683281 -0.103053 
275 1 3 7.66476 28.2498 14.7229 0.136486 0.136685 -0.166589 
276 1 1 10.9298 26.1875 16.2366 0.125142 0.0427746 -0.0284822 
277 1 3 11.2428 25.4786 16.1617 -0.034033 -0.0251054 -0.17512 
278 1 1 11.5756 24.8655 16.6248 -0.0558724 -0.0128755 0.0916984 
279 1 3 11.8125 24.147 17.1353 0.0544679 0.0290971 -0.0313624 
280 1 1 11.943 23.2694 17.5958 0.0148384 -0.201111 0.0885393 
281 1 3 11.9274 22.3699 18.0291 -0.133711 -0.068625 -0.171551 
282 1 1 11.7661 21.3947 18.4134 -0.155661 -0.161017 0.225591 
283 1 3 11.483 20.3809 18.6808 -0.0614108 0.215504 0.10821 
284 1 1 9.19071 27.5022 15.0091 -0.0233624 0.0125289 -0.07113 
285 1 3 8.41417 27.5481 14.5122 -0.0270462 -0.12942 0.0620151 
286 1 1 10.4021 26.5239 15.5092 -0.0213674 0.0787981 -0.0569109 
287 1 3 9.72431 26.8002 14.88 -0.141837 0.131139 0.0825644 
288 1 1 1.45052 24.1342 18.4049 -0.0568429 0.0305814 -0.107157 
289 1 3 1.97154 22.8428 19.2568 0.0152722 0.150204 -0.0683433 
290 1 1 1.72444 23.239 18.687 0.040714 -0.180964 -0.0560503 
291 1 3 11.0863 19.4121 18.8508 0.0334693 0.0923068 -0.136063 
292 1 1 2.38332 21.9082 19.1802 0.0604233 -0.0102009 0.0688315 
293 1 3 2.90813 21.5805 19.9162 -0.0276581 -0.0322293 -0.100588 
294 1 1 10.368 19.3078 19.4515 -0.0495405 -0.0511152 -0.053172 
295 1 3 9.52773 19.2626 19.9672 0.123842 0.0373588 -0.00367722 
296 1 1 8.65651 19.3276 20.3686 -0.0183141 -0.198717 0.209997 
297 1 3 3.44804 20.8067 19.8962 -0.078318 -0.120253 -0.0844808 
298 1 1 3.99743 20.8011 20.4866 -0.143061 -0.0815865 -0.0788772 
299 1 3 4.89139 20.4193 20.801 0.224779 -0.106276 0.0794636 
300 1 1 5.82855 19.9862 20.859 0.112218 0.115145 0.256793 
301 1 3 6.76045 19.7201 20.8442 -0.00287067 0.174502 -0.0245597 
302 1 1 7.71621 19.485 20.6702 -0.0426933 0.111484 -0.195727 
303 1 3 1.97622 25.7931 16.0828 0.0332488 0.0400823 0.00156819 
304 1 1 1.44112 24.6689 17.5831 -0.0592789 0.0602017 -0.0248102 
305 1 3 1.61895 25.2291 16.799 -0.0149612 0.0131065 0.0534974 
306 1 1 4.83662 27.69 14.3862 0.216306 -0.0451138 -0.138477 
307 1 3 3.95712 27.3097 14.5979 -0.128616 -0.0325407 0.130053 
308 1 1 3.16819 26.8538 14.9609 0.153531 -0.0162389 -0.115026 
309 1 3 2.49962 26.344 15.4627 -0.170737 0.0721985 -0.155999 
310 1 1 5.77155 27.9794 14.3358 -0.0530184 0.143427 -0.0816682 
311 1 3 6.5653 27.5047 13.9947 0.122863 -0.0211418 -0.0601931 
312 1 1 7.45642 27.4882 14.1003 -0.010446 0.0721731 -0.0051336 
313 1 3 10.8654 25.6718 15.3871 0.057109 0.0934819 0.0409533 
314 1 1 11.3775 24.8986 15.6938 0.111532 -0.0988532 0.0262277 
315 1 3 11.785 24.1123 16.1572 -0.118662 0.0587048 0.0736633 
316 1 1 12.0369 23.3298 16.6029 -0.0211993 -0.0929391 0.10125 
317 1 3 12.1662 22.453 17.0632 -0.032494 0.144318 0.0255321 
318 1 1 12.1512 21.5531 17.4962 0.0527338 0.00926883 -0.128763 
319 1 3 11.9873 20.5378 17.8834 -0.144106 -0.0375427 -0.131777 
320 1 1 11.7072 19.5571 18.147 0.0170548 0.25926 -0.123693 
321 1 3 9.02608 26.8864 14.3456 0.0221447 0.0154112 0.0208805 
322 1 1 8.34745 26.9628 14.0164 0.12569 -0.169939 -0.218557 
323 1 3 10.207 26.051 14.7156 -0.0122292 -0.166089 0.112671 
324 1 1 9.5738 26.3598 14.3232 0.0862246 0.154971 0.112097 
325 1 3 1.59111 23.8699 17.4661 0.0279617 -0.0791918 0.0199799 
326 1 1 1.67521 23.3187 17.8717 0.0917283 0.089218 0.0862064 
327 1 3 1.97115 22.4243 18.3573 0.0867759 0.219213 -0.0559341 
328 1 1 2.37924 21.4931 18.5231 0.108169 0.0745583 -0.0290815 
329 1 3 11.3197 18.6158 18.3172 0.162032 0.0539709 0.0929887 
330 1 1 10.5939 18.4951 18.9188 -0.0823869 -0.119461 0.122784 
331 1 3 2.83389 21.0221 19.1173 0.0950167 0.00288539 -0.0352727 
332 1 1 9.75236 18.4461 19.4348 0.017386 -0.262758 -0.0597165 
333 1 3 8.8819 18.5116 19.8368 0.0080142 0.116209 0.0442624 
334 1 1 7.94174 18.6697 20.138 -0.00781761 0.0767426 0.161154 
335 1 3 3.40433 20.3004 19.3079 0.222017 0.046755 -0.0324932 
336 1 1 4.15417 20.0269 19.9284 -0.119373 -0.133504 0.054176 
337 1 3 5.111 19.5406 20.2132 -0.0329738 -0.0717795 0.131097 
338 1 1 6.04168 19.223 20.3621 -0.164198 -0.0190924 0.105918 
339 1 3 6.98651 18.9032 20.3119 -0.0115883 -0.0548383 0.0819146 
340 1 1 5.20823 27.2467 14.0179 -0.0604403 0.0768378 0.0468604 
341 1 3 2.43006 25.4511 15.295 -0.134391 0.0683553 0.067299 
342 1 1 2.01169 24.8826 15.8905 -0.0148297 0.137027 -0.163018 
343 1 3 1.72174 24.2383 16.6584 -0.0503152 0.0745375 -0.0830838 
344 1 1 4.54883 26.9252 14.0911 0.112794 -0.0531373 0.0314683 
345 1 3 3.73959 26.4081 14.3141 -0.00598931 0.0656325 -0.166796 
346 1 1 3.00962 25.9554 14.759 -0.0258796 -0.078677 -0.034669 
347 1 3 2.87114 25.0849 14.6123 -0.174151 -0.159493 0.141875 
348 1 1 5.99667 27.1629 13.8048 0.00417703 -0.0603253 -0.0553646 
349 1 3 6.81791 26.8855 13.595 -0.0595579 0.101673 -0.156229 
350 1 1 7.77478 26.5468 13.5017 0.1549 0.141495 0.00574883 
351 1 3 10.5727 25.3891 14.5399 0.0957855 -0.061928 0.101418 
352 1 1 11.0944 24.8198 14.8176 0.08412 0.0608079 -0.0119819 
353 1 3 11.5983 24.109 15.1876 0.037257 -0.0549644 0.0621934 
354 1 1 11.9867 23.3537 15.606 -0.00344321 -0.040173 -0.109091 
355 1 3 12.2602 22.5138 16.0709 0.084736 0.126239 -0.0341463 
356 1 1 12.3903 21.6369 16.5311 0.0758518 0.00413789 -0.0227462 
357 1 3 12.3757 20.7357 16.9645 -0.0494668 0.127358 0.0423824 
358 1 1 12.2133 19.7244 17.3501 0.0650032 -0.127038 0.0597919 
359 1 3 11.9415 18.7248 17.6 0.152092 -0.0620045 -0.149141 
360 1 1 8.8355 26.1774 13.6401 0.0124932 -0.0107169 -0.230898 
361 1 3 9.85074 25.5605 13.8537 -0.0403197 0.0134324 -0.0752397 
362 1 1 1.76853 23.2815 16.9868 0.000622983 0.0692572 -0.20699 
363 1 3 1.90126 22.5024 17.3388 -0.0621186 0.0542735 0.0322422 
364 1 1 2.19643 21.5691 17.709 0.046225 -0.0500915 0.00320979 
365 1 3 2.5846 20.8436 18.1897 0.095947 -0.00887436 0.150976 
366 1 1 11.532 17.7679 17.7881 0.0634524 0.0491104 -0.0436505 
367 1 3 10.831 17.6833 18.3788 0.148379 -0.0190863 -0.00590126 
368 1 1 9.98351 17.6297 18.897 0.0147495 0.0538457 -0.0277808 
369 1 3 3.07917 20.1616 18.5681 0.0514354 -0.00174248 -0.0379822 
370 1 1 9.10644 17.6953 19.3028 0.216993 -0.175011 -0.157298 
371 1 3 8.16687 17.8534 19.6054 0.0813761 -0.0234483 -0.100213 
372 1 1 7.21188 18.0882 19.7798 -0.0774548 0.154365 0.0684023 
373 1 3 3.71537 19.6347 19.056 -0.101095 -0.014766 -0.103152 
374 1 1 4.47794 19.1727 19.4513 0.0513612 -0.0808209 0.0407514 
375 1 3 5.33276 18.769 19.7168 -0.0375808 -0.0655462 -0.0122793 
376 1 1 6.26564 18.4073 19.8302 0.00361325 0.223924 -0.0229802 
377 1 3 5.24472 26.4569 13.5606 -0.0235311 0.130622 0.037685 
378 1 1 2.40104 24.5471 15.1319 0.0812445 -0.0505871 0.0857992 
379 1 3 2.08394 24.1438 15.6891 -0.0139885 -0.0260337 0.00402083 
380 1 1 1.99389 23.3285 15.9941 0.0861517 0.0856923 0.0451656 
381 1 3 4.31732 25.9903 13.74 -0.157953 0.185633 0.159438 
382 1 1 3.54159 25.5524 14.0981 0.0155286 0.0573488 -0.0227821 
383 1 3 3.31777 24.6452 13.9582 0.0163659 0.0126204 0.202344 
384 1 1 2.7911 24.3719 14.5038 0.00755279 0.0553418 -0.000365487 
385 1 3 6.22295 26.3475 13.2731 -0.0592078 0.0121886 0.0393839 
386 1 1 7.18463 26.083 13.0802 0.0405417 0.00711314 -0.0365341 
387 1 3 8.13866 25.7387 13.0127 -0.0969415 -0.141593 -0.0385014 
388 1 1 10.5979 24.8337 13.9975 -0.0875968 -0.0985766 -0.168909 
389 1 3 11.2426 24.1209 14.2726 -0.0779915 0.0617515 0.0961863 
390 1 1 11.798 23.3487 14.662 -0.009565 -0.0135981 -0.0743044 
391 1 3 12.2104 22.5369 15.0742 -0.06055 -0.00954796 -0.0792389 
392 1 1 12.4857 21.6964 15.5383 -0.00376525 0.122062 0.221389 
393 1 3 12.6162 20.8202 15.9994 0.153457 -0.0798474 0.134985 
394 1 1 12.6013 19.9201 16.4326 0.0601582 -0.0843197 0.0794515 
395 1 3 12.4448 18.9002 16.8061 0.171141 0.00891086 0.0575052 
396 1 1 12.1717 17.9227 17.0645 -0.281996 -0.187356 -0.145892 
397 1 3 9.10266 25.2956 13.0781 -0.143965 0.0852821 -0.121632 
398 1 1 9.98924 24.742 13.2421 -0.0147828 -0.0226076 -0.156537 
399 1 3 2.00292 22.5347 16.3306 0.110847 0.000322336 0.00138737 
400 1 1 2.1254 21.6862 16.8068 0.137856 -0.0135926 0.0555399 
401 1 3 2.39682 20.8338 17.209 -0.0672151 -0.0461176 -0.038731 
402 1 1 11.7877 16.9957 17.24 -0.0969804 -0.0920413 -0.0057088 
403 1 3 2.79775 20.0607 17.6699 -0.00938045 -0.0545736 -0.0353951 
404 1 1 11.0451 16.848 17.8475 0.165046 0.0855745 -0.125465 
405 1 3 10.2253 16.814 18.3563 -0.157711 0.0510265 0.120699 
406 1 1 9.33041 16.8796 18.7699 -0.138704 0.189148 -0.00329956 
407 1 3 3.33257 19.4004 18.1624 0.00537952 0.0964099 0.053487 
408 1 1 8.3907 17.0374 19.0715 0.0402527 -0.0363484 -0.114561 
409 1 3 7.43597 17.2725 19.2473 -0.0612788 -0.0344133 -0.0192876 
410 1 1 6.49033 17.592 19.299 -0.0258702 0.128686 -0.0665791 
411 1 3 3.96811 18.8372 18.5802 0.0391908 0.110159 -0.0435928 
412 1 1 4.71412 18.3522 18.927 0.03098 0.170361 -0.0938431 
413 1 3 5.54087 17.9296 19.156 0.0190662 -0.1012 0.12461 
414 1 1 4.78799 25.5785 13.2773 -0.104599 0.200258 -0.133348 
415 1 3 5.56683 25.5915 12.9687 -0.0131088 -0.163459 0.0801466 
416 1 1 2.40888 23.5425 14.961 0.0694732 0.127345 0.0227054 
417 1 3 2.25056 22.5955 15.3455 0.0406645 0.0326449 0.0536119 
418 1 1 4.08951 25.0647 13.452 0.0145527 -0.112928 0.077437 
419 1 3 3.68908 24.2164 13.4261 -0.0123478 0.0647683 0.0526102 
420 1 1 3.05156 23.6264 13.9432 -0.086244 0.0429528 0.0940613 
421 1 3 6.4483 25.5313 12.7407 0.0380526 0.0743521 -0.016783 
422 1 1 7.4026 25.2947 12.5655 -0.156887 -0.141158 0.11628 
423 1 3 8.34882 24.9762 12.5161 0.123301 -0.0448146 -0.0178045 
424 1 1 10.7779 24.0618 13.4512 0.0631057 0.0760108 -0.0766883 
425 1 3 11.4498 23.331 13.7392 0.0434046 -0.0416919 0.00192632 
426 1 1 12.0225 22.5318 14.131 0.0690218 -0.037544 -0.0331338 
427 1 3 12.4358 21.7198 14.5413 -0.0790949 -0.0150158 -0.00526712 
428 1 1 12.7118 20.8799 15.0062 -0.0879421 -0.0100419 -0.0233096 
429 1 3 12.397 17.1272 16.5389 0.187155 0.0536124 -0.0185672 
430 1 1 12.8419 20.0029 15.4678 -0.17073 0.00051683 -0.0726154 
431 1 3 12.8271 19.103 15.8989 -0.00143408 -0.158934 -0.126102 
432 1 1 12.6705 18.0941 16.2752 0.0220257 0.0942269 0.0786796 
433 1 3 9.30512 24.5243 12.5729 0.0823687 -0.0918726 0.121045 
434 1 1 10.2026 23.9264 12.7013 -0.0628299 0.168203 0.0145781 
435 1 3 2.22064 21.7471 15.8144 -0.0676286 0.0161014 -0.137656 
436 1 1 2.34984 20.8707 16.2748 -0.08806 -0.0374432 -0.0227591 
437 1 3 2.6245 20.0291 16.7395 0.0398805 -0.00987253 -0.0371098 
438 1 1 12.0256 16.1772 16.6944 0.0299319 0.0271932 -0.0159673 
439 1 3 11.2826 16.0459 17.3134 0.0069554 -0.0223309 0.0199978 
440 1 1 3.02227 19.2773 17.189 -0.148866 0.0616382 0.111789 
441 1 3 10.4384 15.9926 17.8293 0.0871571 0.059275 -0.141512 
442 1 1 9.55662 16.0631 18.2381 0.154625 -0.10126 0.0899577 
443 1 3 8.61628 16.2213 18.539 -0.187716 -0.0700314 0.0186449 
444 1 1 3.56396 18.5984 17.6583 0.00746946 0.0857573 0.0608995 
445 1 3 7.66154 16.4567 18.7132 0.111387 -0.0692834 0.00194584 
446 1 1 6.71594 16.7753 18.7651 -0.166498 -0.0492923 0.00517128 
447 1 3 5.76969 17.1149 18.6266 0.0324813 0.0183805 0.0511035 
448 1 1 4.19773 18.0272 18.0606 0.046488 -0.174852 -0.0383249 
449 1 3 4.93767 17.5318 18.3893 0.0499627 0.0524993 0.0401621 
450 1 1 4.88339 24.9311 12.8974 0.0964435 0.0228816 -0.0930879 
451 1 3 5.78916 24.8543 12.4816 0.0634475 0.12081 -0.0361904 
452 1 1 2.66205 22.6774 14.3692 0.212426 0.133499 0.312061 
453 1 3 2.4603 21.8315 14.8494 -0.0355546 0.0312371 0.0322048 
454 1 1 4.31626 24.2011 12.8981 0.0652729 0.110745 -0.0477781 
455 1 3 3.709 23.4973 13.1325 0.0124622 0.0607647 0.0155772 
456 1 1 3.21731 22.7268 13.4696 0.0960721 0.0635324 -0.11985 
457 1 3 6.67308 24.7149 12.2074 0.0804878 -0.10627 0.126686 
458 1 1 7.62855 24.4789 12.0334 0.0312382 0.0531839 0.0340988 
459 1 3 8.57363 24.1589 11.9844 -0.0792675 0.0381867 0.00410822 
460 1 1 10.9928 23.2552 12.9168 -0.111998 -0.162674 0.0497977 
461 1 3 11.6709 22.5172 13.2064 0.096849 0.0678866 0.0474025 
462 1 1 12.2464 21.714 13.5915 -0.0327672 0.00642861 -0.077893 
463 1 3 12.6614 20.9032 14.0097 -0.0756641 0.0363162 0.1652 
464 1 1 12.937 20.063 14.475 0.114834 0.0309189 0.0102028 
465 1 3 12.6215 16.3001 16.0044 0.0198358 0.00876837 -0.038942 
466 1 1 12.8939 17.2719 15.7462 0.146748 -0.105136 -0.241252 
467 1 3 13.0676 19.1856 14.934 -0.110545 0.100936 0.0962361 
468 1 1 13.0522 18.2865 15.367 -0.0524217 -0.102094 0.012987 
469 1 3 9.56081 23.6822 12.035 -0.0574478 -0.206688 -0.00676638 
470 1 1 10.4323 23.1031 12.1669 0.113256 -0.0461161 0.245039 
471 1 3 2.44492 20.9311 15.2824 0.0237587 0.0299767 0.0604305 
472 1 1 2.57461 20.0538 15.7424 -0.0516838 -0.142124 -0.0753145 
473 1 3 2.84919 19.2129 16.2072 0.18943 0.00381398 -0.110781 
474 1 1 12.2397 15.354 16.1691 -0.0528424 -0.165118 0.00502781 
475 1 3 11.5097 15.2422 16.785 0.103799 -0.174366 0.0806698 