ITEM: TIMESTEP
100000000
ITEM: NUMBER OF ATOMS
57074
ITEM: BOX BOUNDS pp pp pp
0 62
0 62
0 62
ITEM: ATOMS id mol type x y z vx vy vz 
1 1 3 54.8405 19.3829 50.4178 -0.198661 -0.118551 0.131029
2 1 1 55.3738 20.0563 50.5021 -0.125563 -0.174752 0.0773037
3 1 3 54.4198 20.0381 50.1633 0.0560183 0.0698163 0.126976
4 1 1 54.9762 20.8307 50.2385 0.120796 -0.10944 -0.0993859
5 1 3 53.9167 19.2686 49.8623 0.0289493 -0.0811969 0.0330662
6 1 1 54.1034 20.8428 49.6854 0.183504 -0.0387688 -0.0586272
7 1 3 54.6027 21.6499 49.612 -0.00200458 0.089094 -0.148314
8 1 1 55.662 19.1724 50.6542 0.117556 -0.0557464 -0.0815145
9 1 3 56.3379 19.8861 50.6997 0.025172 -0.143615 0.0242833
10 1 1 55.9356 20.6979 50.48 -0.159089 -0.0485194 0.0792827
11 1 3 55.5425 21.4601 50.0498 0.00378046 0.038552 0.0542547
12 1 1 55.5109 22.1519 49.4933 0.11572 0.00740643 -0.0623575
13 1 3 55.0468 18.4394 50.3623 0.0180209 -0.0433019 0.000997767
14 1 1 54.4082 18.7778 50.1688 0.124149 0.0284617 0.096185
15 1 3 53.8391 18.4591 49.7347 -0.0396196 0.0456004 0.0682236
16 1 1 53.5735 20.0954 49.5268 -0.0602296 -0.0233768 0.0430218
17 1 3 53.1428 19.1645 49.3172 -0.0145666 -0.0176852 0.0736666
18 1 1 54.9715 22.3538 49.0595 -0.0377864 -0.0353665 0.0835697
19 1 3 54.2357 22.1776 48.836 0.345057 -0.106789 0.052548
20 1 1 53.7513 21.4914 49.0741 0.221305 0.0645616 0.07901
21 1 3 53.2288 20.8063 48.9867 -0.0887832 0.00835441 0.0384039
22 1 1 55.4083 17.6925 50.3517 -0.0113371 -0.129572 0.159949
23 1 3 55.9906 18.4816 50.7012 -0.0233545 -0.133411 0.0803834
24 1 1 56.6799 19.1152 50.7558 0.0652494 0.100011 -0.172868
25 1 3 57.2702 19.6374 50.7581 -0.0254893 0.101604 0.228095
26 1 1 57.0116 20.5195 50.5847 -0.0313479 -0.0272446 0.033717
27 1 3 56.6381 21.3363 50.218 -0.0031526 0.0345889 -0.14123
28 1 1 55.5755 22.7952 48.8281 -0.0172087 0.0524879 -0.160938
29 1 3 56.4023 22.0407 49.7474 -0.0784373 -0.00575646 0.17407
30 1 1 56.2489 22.6918 49.2103 0.0770684 0.0855392 0.0451435
31 1 3 54.4749 17.8249 49.9736 0.121218 0.237337 -0.159915
32 1 1 53.6401 17.7728 49.4615 0.125914 0.0152122 -0.0754544
33 1 3 53.101 18.3099 49.1507 -0.0428138 -0.120722 -0.0168147
34 1 1 52.8257 19.9372 48.849 -0.0230177 0.161197 -0.0854454
35 1 3 52.6055 18.9323 48.6565 -0.131784 0.0601508 -0.00363755
36 1 1 54.7891 22.7064 48.4115 0.227963 0.0275462 0.0692101
37 1 3 54.061 22.5826 47.9766 -0.0416036 0.12876 0.0836723
38 1 1 55.4238 23.2124 48.1408 -0.0976579 -0.00636899 0.0360886
39 1 3 53.5117 22.012 48.241 -0.258318 -0.0222173 -0.0319803
40 1 1 53.0833 21.4047 48.3235 0.107659 0.13475 0.0264864
41 1 3 52.5343 20.5399 48.1885 0.0977329 -0.124385 -0.206547
42 1 1 55.2522 17.122 50.0576 -0.0136427 0.126199 -0.0165772
43 1 3 56.2048 17.0544 50.3458 -0.108235 0.0129351 0.15198
44 1 1 56.4928 17.716 50.6167 -0.00761677 -0.163463 0.0813902
45 1 3 56.8354 18.386 50.7253 -0.0820635 -0.134901 -0.13052
46 1 1 57.5521 18.7258 50.7022 -0.124639 -0.072821 0.120611
47 1 3 58.227 19.3506 50.5778 -0.0295061 -0.0173649 0.0516873
48 1 1 57.9947 20.3294 50.5371 -0.121964 0.0233033 0.114968
49 1 3 57.6645 21.2524 50.1755 -0.0492375 -0.0164855 0.151468
50 1 1 57.431 21.9974 49.7522 0.0110078 0.000331282 -0.0167553
51 1 3 56.2302 23.225 48.4679 0.0385512 0.120245 -0.108469
52 1 1 57.1455 22.5805 49.3131 -0.0724255 -0.0197279 0.052761
53 1 3 56.8942 23.0501 48.824 -0.0229029 -0.0897427 -0.0444586
54 1 1 54.7222 16.8709 49.6919 0.158707 -0.19941 -0.0208156
55 1 3 55.3979 16.1775 49.5025 -0.0662562 -0.106387 0.101184
56 1 1 54.0059 17.1698 49.4628 -0.0290244 -0.0640087 -0.0318276
57 1 3 53.2685 17.3773 48.96 0.0420473 -0.0553992 0.0227993
58 1 1 54.1521 16.3729 49.0617 -0.0111501 -0.154847 0.0599113
59 1 3 52.6485 17.8569 48.4065 -0.20053 0.0858291 0.104775
60 1 1 52.245 19.553 48.1049 -0.0591283 -0.268242 0.13178
61 1 3 52.2259 18.448 47.9306 -0.0813208 -0.0354403 -0.074097
62 1 1 53.5367 22.4022 47.5604 0.0188704 0.143366 0.0749066
63 1 3 54.7125 23.1149 47.6859 0.0315316 0.0398563 -0.137791
64 1 1 54.0445 22.8861 47.1005 0.0768086 0.00535015 -0.118921
65 1 3 56.2721 23.7006 47.8409 -0.102296 -0.00872453 0.0236554
66 1 1 55.4649 23.6086 47.4321 0.0729772 -0.0208467 0.100155
67 1 3 53.0504 21.8561 47.4788 0.0305045 0.080507 0.0268064
68 1 1 52.5286 21.0636 47.4877 -0.0842565 -0.0170464 -0.102234
69 1 3 52.1188 20.205 47.3938 0.124729 0.0711283 -0.124866
70 1 1 56.0471 16.5236 50.0666 -0.053949 0.0492529 -0.141194
71 1 3 56.8752 16.8298 50.2727 -0.108871 -0.26112 0.196165
72 1 1 57.5252 17.719 50.5231 0.0411926 -0.0334882 0.0324063
73 1 3 58.4227 18.3648 50.5366 -0.090144 0.0356135 0.023321
74 1 1 59.0078 19.0226 50.3862 0.218548 -0.143935 -0.0459618
75 1 3 58.9242 19.8933 50.3012 0.0994332 -0.0648069 0.139068
76 1 1 58.6224 20.9242 50.047 -0.00640311 -0.00362475 0.137087
77 1 3 58.3063 21.754 49.6744 0.0564298 -0.0650728 -0.00927842
78 1 1 58.129 22.4262 49.1469 0.0696778 -0.213147 -0.0684557
79 1 3 57.04 23.5097 48.29 -0.00246231 -0.130231 -0.0619746
80 1 1 57.8437 23.0948 48.647 -0.138157 0.118356 0.113273
81 1 3 57.0824 23.9554 47.4982 -0.215822 0.0276495 -0.0763895
82 1 1 56.1611 15.7306 49.3006 -0.10022 0.0439276 0.0360734
83 1 3 54.7909 15.9339 49.0569 0.0568375 0.167082 -0.000542662
84 1 1 55.53 15.6068 48.997 -0.0241407 0.000729878 0.113789
85 1 3 53.5881 16.5378 48.773 0.132845 0.133199 0.19937
86 1 1 52.9058 16.96 48.1954 0.0598022 0.00815957 -0.0133849
87 1 3 53.9846 15.9156 48.4739 0.0272631 0.0156121 0.121313
88 1 1 52.3012 17.5318 47.5597 0.13111 -0.0940061 0.122014
89 1 3 51.9515 19.1172 47.217 0.00162939 -0.0647513 0.156834
90 1 1 51.9987 18.0591 46.9375 -0.0222232 -0.00963282 0.0570424
91 1 3 53.2155 22.3394 46.5766 -0.0213133 0.00589199 -0.0235354
92 1 1 54.6703 23.3925 46.8358 -0.0811009 0.0675768 0.065112
93 1 3 53.9997 23.0137 46.2404 -0.301406 -0.162522 -0.0886264
94 1 1 56.1753 24.0151 46.9974 0.13354 -0.0592899 0.00450868
95 1 3 55.3893 23.8003 46.4909 -0.0809927 -0.0532249 -0.0443777
96 1 1 52.6146 21.6092 46.6195 0.148625 0.120524 0.222597
97 1 3 52.0789 20.8441 46.6043 -0.00462431 -0.0556395 -0.0306489
98 1 1 51.8318 19.7588 46.5073 -0.0393321 0.0210375 -0.201101
99 1 3 56.8258 16.0916 49.7504 0.0992154 -0.0380793 0.200105
100 1 1 57.7463 16.6918 50.0309 -0.0545243 -0.0754939 0.0369535
101 1 3 58.5605 17.3965 50.1454 0.126904 -0.0787351 0.0447843
102 1 1 59.3553 17.9787 50.1225 0.0205819 0.0202939 0.221227
103 1 3 59.5634 19.5796 50.0557 0.0815325 -0.0793805 -0.165852
104 1 1 59.7393 18.8922 49.9757 -0.00141422 0.0569438 -0.0939787
105 1 3 59.5728 20.4619 49.7477 -0.0709416 -0.0473953 -0.0466403
106 1 1 59.1934 21.4894 49.4691 -0.114361 -0.135723 0.142336
107 1 3 58.8849 22.2054 49.069 -0.125009 -0.0139755 -0.0457155
108 1 1 58.7631 22.7632 48.6064 -0.227184 0.0186655 0.17725
109 1 3 57.0171 24.2161 46.6587 0.059831 -0.0817158 -0.0554066
110 1 1 57.8755 23.6514 47.9096 0.19007 -0.0244747 -0.173419
111 1 3 58.7547 23.2145 48.063 -0.146017 -0.0816359 -0.192303
112 1 1 57.9426 24.0197 47.0311 0.0220744 0.152063 0.138959
113 1 3 55.9638 15.1564 48.5666 -0.0344154 0.0685447 -0.138825
114 1 1 56.7945 15.4089 48.9936 -0.0333076 0.190379 0.00136138
115 1 3 54.9422 15.2715 48.2631 -0.0156887 0.121798 0.138358
116 1 1 55.7566 14.7234 47.8613 -0.0871981 -0.0579165 0.00861176
117 1 3 53.3335 16.0744 47.8936 -0.0282801 -0.0781792 0.202805
118 1 1 52.6431 16.5586 47.24 0.0479533 0.113456 -0.115248
119 1 3 53.961 15.3974 47.6083 0.0246491 0.126345 0.0305187
120 1 1 52.2087 17.1851 46.6119 -0.00672923 -0.070065 0.0266344
121 1 3 51.7844 18.7694 46.3301 0.0625512 -0.203943 0.121801
122 1 1 52.0144 17.7494 46.1212 -0.0811831 -0.0390789 0.0920075
123 1 3 52.8922 22.0739 45.7396 0.227108 0.0373442 -0.136736
124 1 1 53.367 22.5657 45.7254 -0.0359125 -0.14137 -0.0668732
125 1 3 54.647 23.4267 45.9358 -0.132817 -0.067759 0.131685
126 1 1 53.8859 22.9341 45.4471 -0.0877691 0.105692 -0.0511352
127 1 3 56.2239 24.1745 46.1199 -0.128029 -0.0208724 -0.100836
128 1 1 55.5098 23.9031 45.5644 0.0965107 0.100358 0.0928238
129 1 3 56.8903 24.3594 45.8182 0.0619 0.0742339 0.0089161
130 1 1 51.7054 19.3128 45.656 0.21533 0.10915 -0.125429
131 1 3 52.3224 21.4055 45.773 0.110812 -0.111186 -0.0156914
132 1 1 51.8914 20.264 45.5865 0.147861 -6.95171e-05 -0.117767
133 1 3 57.6604 15.8835 49.4257 0.0243783 -0.016219 -0.120275
134 1 1 58.5104 16.5049 49.6511 -0.0849737 -0.00791506 0.0820944
135 1 3 60.1246 18.3266 49.6387 -0.015108 -0.0314306 -0.0620203
136 1 1 59.1971 17.1101 49.716 0.150318 -0.0901148 -0.0765393
137 1 3 59.9307 17.5497 49.4981 0.037703 -0.124118 0.181111
138 1 1 60.2039 19.6367 49.6297 -0.000954846 -0.0205438 0.160703
139 1 3 60.4379 18.8851 49.4611 0.0426025 -0.00994957 -0.0646472
140 1 1 60.4782 20.3783 49.1204 -0.0377414 0.0565914 0.0222235
141 1 3 59.9787 21.2892 49.1804 -0.081279 -0.00973809 -0.0947892
142 1 1 59.5465 21.9375 48.9485 -0.0127652 0.0770657 0.0963452
143 1 3 59.5199 22.5665 48.2885 0.126179 0.189189 0.1419
144 1 1 57.7748 24.4043 46.1381 -0.0381331 -0.0762437 0.0388058
145 1 3 58.7062 23.7229 47.3667 -0.130413 0.173724 -0.140531
146 1 1 59.3008 23.293 47.6519 -0.0336262 -0.0019253 0.0254135
147 1 3 58.6646 24.2155 46.5026 -0.182471 -0.0304484 -0.0888971
148 1 1 56.6186 14.8585 48.1555 0.0434468 -0.105423 -0.00336809
149 1 3 57.498 15.2514 48.6391 0.0188457 0.00141099 0.0450986
150 1 1 54.7383 14.7774 47.3202 -0.12836 0.045753 0.0222492
151 1 3 56.5003 14.4883 47.4546 0.00387149 -0.109762 0.0324114
152 1 1 55.6071 14.5109 46.8917 -0.00890158 -0.0480221 -0.0180667
153 1 3 53.1773 15.7728 46.9738 0.122901 0.0992836 -0.136385
154 1 1 52.5806 16.2775 46.296 -0.136903 0.00990402 -0.129674
155 1 3 53.8958 15.1417 46.8366 0.04626 -0.0138901 -0.11884
156 1 1 52.1745 16.9558 45.6989 0.0920818 0.011145 0.00245451
157 1 3 51.8083 18.3957 45.5056 0.184002 -0.0211571 -0.0320486
158 1 1 51.9919 17.5864 45.3666 0.0306065 0.118519 -0.158835
159 1 3 52.6495 21.725 45.0768 -0.0615659 -0.0704346 -0.0216783
160 1 1 53.3181 22.3087 44.8788 0.0683267 -0.0457316 0.137914
161 1 3 54.0353 22.9607 44.6593 -0.0846624 -0.00012346 -0.219237
162 1 1 54.7433 23.4961 44.9605 -0.0439873 0.133725 -0.0649022
163 1 3 56.3166 24.2847 45.1991 0.0993481 0.0638955 -0.168202
164 1 1 55.6205 23.9972 44.7665 0.138042 -0.051979 0.0561134
165 1 3 57.5702 24.5788 45.2698 0.217178 0.0704462 -0.076584
166 1 1 56.9352 24.5054 44.9627 -0.00706096 0.0790395 0.0434835
167 1 3 51.7941 19.6151 44.9654 0.24358 0.0575782 0.0123219
168 1 1 51.7826 18.8633 44.9415 0.0758632 0.134763 0.0735495
169 1 3 52.2946 21.1091 44.8557 0.0220403 0.182257 0.0632837
170 1 1 52.0481 20.2802 44.4815 -0.103931 0.109876 -0.0459543
171 1 3 58.4485 15.6961 48.9727 0.141497 -0.130894 -0.0555902
172 1 1 59.1907 16.2538 49.0413 0.178049 -0.00745084 -0.269689
173 1 3 60.5239 18.0392 49.2104 0.0515452 -0.0943465 -0.0976762
174 1 1 59.8806 16.7563 48.9768 0.0407215 -0.127155 -0.0463917
175 1 3 60.4015 17.3694 48.9702 0.156016 0.0851936 0.163877
176 1 1 61.0066 18.5649 48.848 -0.0852406 -0.139116 -0.0788057
177 1 3 60.8222 19.4945 49.0218 -0.00543435 0.1298 0.0416729
178 1 1 61.0893 20.2173 48.4871 -0.0937774 0.0638293 0.0403613
179 1 3 60.6719 21.1247 48.5713 0.010359 -0.0369988 0.0401271
180 1 1 60.1354 21.9158 48.489 0.0595645 0.12035 -0.0136983
181 1 3 60.3603 22.4308 47.8414 -0.058773 0.117192 0.0876508
182 1 1 59.9775 23.0166 47.5149 0.0622431 0.0539785 0.0663008
183 1 3 58.5529 24.5122 45.6539 -0.263385 0.101182 -0.106073
184 1 1 58.2089 24.7364 44.8054 -0.10051 0.0120557 -0.116295
185 1 3 59.5436 23.7006 46.9012 0.00612963 -0.100849 -0.0337619
186 1 1 59.3367 24.2235 46.1028 -0.0337133 0.217943 -0.22414
187 1 3 57.395 14.807 47.7004 -0.0399861 -0.0595706 0.218626
188 1 1 58.2773 15.2243 48.1136 0.0361904 0.0473929 0.132658
189 1 3 54.6764 14.6807 46.4375 0.276267 -0.0383107 -0.0620198
190 1 1 55.323 14.4794 46.013 -0.129695 -0.0602313 -0.163896
191 1 3 57.062 14.4487 47.0245 0.0856075 -0.0413078 0.0267236
192 1 1 56.5554 14.3109 46.6244 0.161559 -0.0625419 0.0731761
193 1 3 56.0468 14.3598 46.1002 -0.0225048 0.0424764 -0.0730052
194 1 1 53.2279 15.4889 46.043 -0.0128715 0.0238121 -0.108735
195 1 3 52.6596 16.0809 45.3698 -0.0624579 0.00762828 -0.011978
196 1 1 53.9411 14.9929 45.7968 -0.137337 -0.0149156 -0.030707
197 1 3 52.2934 17.011 44.7189 0.0539056 -0.0606051 0.105355
198 1 1 52.0016 17.9668 44.6804 0.124914 0.0775091 -0.0326484
199 1 3 52.8028 21.6416 44.3803 0.0279467 0.0528094 -0.0523062
200 1 1 53.3133 22.1131 43.9928 0.0377323 0.112117 -0.0875314
201 1 3 53.834 22.6778 44.0685 0.0424081 -0.0247405 -0.0920663
202 1 1 54.5187 23.2114 44.0934 0.149613 0.0289669 -0.0214823
203 1 3 55.3022 23.8014 43.9919 0.0354697 -0.0633015 0.0194519
204 1 1 56.3013 24.3664 44.1923 0.0203602 0.0683222 -0.0128331
205 1 3 57.4616 24.7341 44.2637 -0.0791043 -0.0184454 -0.149438
206 1 1 51.9626 19.4016 44.2242 0.0361597 0.0491449 0.0512015
207 1 3 52.1221 18.48 44.0223 0.101302 0.04454 0.00420577
208 1 1 52.4718 20.9471 43.9226 0.183864 0.0859773 -0.059088
209 1 3 52.3057 20.0378 43.6307 0.10141 0.117704 0.0543806
210 1 1 59.1475 15.6416 48.2749 -0.0224865 -0.0597227 -0.107689
211 1 3 59.8812 16.1741 48.3256 -0.0734694 0.0478183 0.14613
212 1 1 60.9343 17.7243 48.4535 0.012516 -0.0342425 -0.146052
213 1 3 60.5513 16.8592 48.1484 -0.191803 0.153894 -0.0600223
214 1 1 61.3783 18.3403 48.0574 0.158948 0.112717 -0.0105883
215 1 3 61.3479 19.2415 48.3251 -0.0169221 -0.314839 -0.10013
216 1 1 58.4709 24.8968 44.124 -0.186037 -0.140777 0.0874482
217 1 3 59.0995 24.7416 44.7814 0.0581181 -0.123527 -0.045852
218 1 1 61.5627 19.8428 47.7124 -0.0634304 0.00489997 -0.131009
219 1 3 61.3421 20.7957 47.8525 -0.132328 -0.087219 -0.0186563
220 1 1 60.9336 21.7678 47.8051 0.0024165 -0.108595 -0.119628
221 1 3 60.688 22.6389 47.2371 0.0390734 0.00840584 0.0598243
222 1 1 60.4798 23.2911 46.7734 -0.0470984 -0.100941 0.106432
223 1 3 59.5144 24.4958 45.4641 0.104321 0.0772658 0.0948472
224 1 1 60.1327 23.9571 46.0803 -0.0522691 -0.0723084 -0.10544
225 1 3 59.0967 15.2399 47.3873 0.0297526 0.0549962 0.0607652
226 1 1 58.0675 14.7599 47.0705 0.0636662 0.188381 0.142443
227 1 3 54.6846 14.6842 45.3914 0.0131412 0.200805 0.0434949
228 1 1 55.3676 14.4883 45.2767 0.0501881 -0.0198519 -0.0348061
229 1 3 55.9889 14.3796 45.4252 -0.154027 -0.0750227 0.111423
230 1 1 57.3905 14.3675 46.2761 0.0258674 -0.278966 0.0960595
231 1 3 56.6565 14.3145 45.8323 -0.176054 -0.185497 0.0860896
232 1 1 53.4446 15.4705 45.045 0.00842619 -0.104798 -0.0786204
233 1 3 52.9018 16.0788 44.4495 0.00126391 -0.0846769 0.034778
234 1 1 54.1072 15.0771 44.8333 0.0992606 0.0498283 0.0972465
235 1 3 52.7898 16.6507 43.7445 -0.0898294 -0.0199226 0.0113658
236 1 1 52.2968 17.57 43.8156 -0.0370339 0.118579 0.0806972
237 1 3 52.9719 21.6178 43.5753 -0.0933695 0.00771523 0.178551
238 1 1 53.5709 22.1932 43.1974 0.0689337 0.0236053 0.00805883
239 1 3 54.2981 22.9285 43.2388 0.0479411 0.121386 -0.0459212
240 1 1 55.0747 23.5877 43.2231 -0.092916 0.0164613 -0.0761962
241 1 3 55.8776 24.132 43.273 0.0353645 0.0370167 -0.0580457
242 1 1 56.8794 24.6352 43.2735 0.0299804 -0.00820424 0.0844576
243 1 3 57.8707 24.9816 43.3734 0.059091 0.0996824 -0.0290648
244 1 1 52.3156 19.0663 43.4527 0.103746 -0.0555906 0.0691517
245 1 3 52.4922 18.1349 43.1738 0.184913 -0.111784 0.149847
246 1 1 52.6734 20.7896 43.0165 -0.00278032 -0.161734 -0.108275
247 1 3 52.6608 19.8322 42.8246 0.0518028 -0.112857 -0.175693
248 1 1 59.8216 15.7257 47.6377 0.138221 0.155752 -0.00338476
249 1 3 60.3251 16.2358 47.6284 0.00335154 0.0287963 -0.0717086
250 1 1 61.1811 17.4578 47.6881 -0.162889 -0.213246 0.143063
251 1 3 60.7831 16.6695 47.262 -0.0308101 0.0105875 0.139711
252 1 1 61.6543 18.0897 47.1594 -0.133544 -0.192546 0.0103848
253 1 3 61.7307 18.9523 47.4935 -0.0966542 0.0668407 -0.0445128
254 1 1 58.8498 25.1522 43.2524 -0.016862 -0.0202459 -0.132161
255 1 3 59.4247 24.9574 43.8712 0.0639574 -0.00357476 -0.0960627
256 1 1 60.0298 24.6455 44.6306 -0.312916 0.125913 -0.048363
257 1 3 -0.0229144 19.7145 47.0014 0.0130909 -0.0647256 -0.0752082
258 1 1 61.8103 20.5461 47.1835 -0.0887266 0.00435221 -0.0518247
259 1 3 61.5999 21.2222 47.2567 -0.0519814 -0.0393199 0.158122
260 1 1 61.4564 22.0533 46.8505 -0.164816 -0.11453 -0.0178438
261 1 3 61.2848 22.7826 46.4359 -0.0367216 0.102512 -0.009088
262 1 1 60.9128 23.568 45.9807 0.0100194 0.0753352 0.0151721
263 1 3 60.4988 24.2573 45.3474 -0.0688794 0.0657318 0.0962759
264 1 1 59.6174 15.3911 46.9118 -0.190652 -0.0626617 0.0521357
265 1 3 59.0153 15.0024 46.4907 0.0957798 0.05573 0.0361574
266 1 1 58.1798 14.5923 46.0889 0.0453595 0.057965 -0.0805183
267 1 3 54.9582 14.8 44.4317 -0.0427901 -0.0230906 0.039288
268 1 1 55.8317 14.5418 44.6026 -0.182346 0.108199 0.0338092
269 1 3 56.6206 14.4456 45.0132 0.020773 -0.0227996 -0.0355308
270 1 1 57.4558 14.4503 45.4778 -0.117689 -0.181503 0.0615563
271 1 3 53.6426 15.5695 44.0873 0.106476 -0.0246776 0.00271819
272 1 1 53.2902 16.0219 43.7455 0.0059824 0.141151 0.163127
273 1 3 54.264 15.2614 44.0277 -0.033964 0.0169431 0.0830442
274 1 1 53.4247 16.4302 43.1567 -0.220926 -0.0279051 0.0369569
275 1 3 52.8928 17.2496 43.0346 0.00987576 0.22535 -0.0692691
276 1 1 53.1743 21.3935 42.542 -0.0432042 0.130467 -0.246553
277 1 3 53.6085 21.8764 42.1789 -0.131759 0.0508277 -0.0541166
278 1 1 54.1645 22.5408 42.3124 -0.116346 -0.166383 0.203326
279 1 3 54.7517 23.2208 42.4647 0.118605 -0.176498 -0.130625
280 1 1 55.5098 23.811 42.4481 0.112235 0.0278628 -0.0468221
281 1 3 56.2834 24.3564 42.5337 -0.0280319 0.0302282 0.0133207
282 1 1 57.3441 24.9036 42.4981 -0.0121465 0.186639 0.100538
283 1 3 58.3501 25.2304 42.5349 -0.0835713 0.0340673 -0.0112398
284 1 1 52.7451 18.9214 42.7033 -0.137783 0.21824 -0.230011
285 1 3 52.9885 17.9862 42.4655 -0.0482423 0.00971936 -0.100165
286 1 1 52.9305 20.5386 42.2583 -0.1465 -0.0162771 0.00776007
287 1 3 52.9396 19.571 42.057 -0.0713936 -0.141903 0.0719682
288 1 1 60.2787 15.961 46.857 -0.00146041 0.0124196 0.103255
289 1 3 61.3015 17.2425 46.8514 -0.0819143 0.219174 -0.15015
290 1 1 60.8866 16.5951 46.6125 -0.0732246 0.116937 -0.00966622
291 1 3 59.35 25.4431 42.3528 0.0741535 -0.141189 -0.0583644
292 1 1 61.8825 17.9096 46.3207 -0.257939 0.131321 0.0927446
293 1 3 0.0669124 18.7955 46.6839 0.0596544 0.027501 0.0228562
294 1 1 59.8828 25.1857 42.9694 0.195768 0.180938 0.0134522
295 1 3 60.3713 24.8449 43.7176 -0.157075 0.0664144 0.0431858
296 1 1 60.8873 24.4523 44.4967 0.271001 -0.0576813 0.293257
297 1 3 0.357444 19.5522 46.2288 -0.189316 0.0366625 0.132527
298 1 1 0.196901 20.2483 46.6333 0.0567927 -0.108247 0.0274748
299 1 3 0.103154 21.2134 46.4193 0.0626839 0.0309208 -0.103987
300 1 1 -0.00746305 22.2115 46.0102 -0.214013 -0.109073 -0.0241581
301 1 3 61.7009 23.0686 45.6719 -0.200423 -0.106994 0.0616776
302 1 1 61.2457 23.8648 45.1637 0.0622405 -0.146493 -0.0985407
303 1 3 58.3171 14.6784 45.1251 0.0910711 0.0114396 -0.0664081
304 1 1 59.699 15.3973 46.2306 0.171787 -0.169228 0.0325073
305 1 3 59.0159 14.9578 45.633 0.118508 0.0374398 0.0715292
306 1 1 54.7668 15.2191 43.547 -0.190575 0.0930696 -0.0020587
307 1 3 55.6975 14.8758 43.7659 -0.0609076 -0.0729671 -0.0524624
308 1 1 56.5846 14.6777 44.2333 -0.0204742 0.183375 0.0789155
309 1 3 57.4284 14.5839 44.6736 -0.0947046 0.0102692 -0.0952754
310 1 1 54.0302 15.7744 43.2373 0.0834251 0.105991 0.115281
311 1 3 53.9964 16.4214 42.5078 -0.129695 -0.0740718 -0.0440611
312 1 1 53.518 17.0897 42.3474 0.118594 0.0944234 -0.203318
313 1 3 53.4502 21.1223 41.6332 0.0244654 -0.0834334 0.0441251
314 1 1 53.9613 21.9446 41.5799 -0.0274481 -0.0815786 -0.117127
315 1 3 54.5463 22.7605 41.6007 -0.0532506 -0.00496483 0.153414
316 1 1 55.2078 23.4264 41.6029 0.0589969 -0.0879915 0.0553555
317 1 3 55.9801 24.1675 41.5637 0.0431887 -0.034223 -0.047824
318 1 1 56.7439 24.6825 41.7202 0.0679952 0.0857862 0.0807913
319 1 3 57.8055 25.1848 41.7403 0.180797 0.106129 -0.0352129
320 1 1 58.7282 25.5382 41.5695 -0.0615684 0.088542 -0.077846
321 1 3 53.1378 18.6634 41.9401 -0.00585695 -0.00768485 -0.186176
322 1 1 53.4044 17.9854 41.8399 -0.0167414 0.108267 0.0185577
323 1 3 53.2124 20.1291 41.4882 -0.0982318 0.0397279 0.00931413
324 1 1 53.2292 19.3285 41.4971 -0.094397 -0.00677723 0.0287301
325 1 3 60.2189 15.8973 45.8026 0.0187912 -0.00576447 -0.0464419
326 1 1 60.7017 16.2774 45.9755 0.0775572 -0.081177 -0.208889
327 1 3 61.463 17.0407 45.9674 -0.00887772 -0.0497444 -0.0849119
328 1 1 0.0996328 17.8054 45.5957 -0.12404 -0.0718339 0.0377304
329 1 3 59.7034 25.7581 41.4867 -0.0190501 -0.0350639 -0.160699
330 1 1 60.3731 25.4747 42.1502 0.0343292 -0.123136 0.139228
331 1 3 0.384487 18.6047 45.7867 -0.0219327 0.132084 0.0955482
332 1 1 60.8934 25.0851 42.7759 0.211217 -0.0984431 -0.1295
333 1 3 61.2974 24.6592 43.5711 -0.041123 -0.108469 0.00521768
334 1 1 61.7665 24.0702 44.2067 -0.0816017 -0.0612095 -0.0324368
335 1 3 0.696195 19.4289 45.4582 -0.0359015 -0.149261 -0.114566
336 1 1 0.628292 20.392 45.7816 -0.0897988 0.0334612 -0.0764783
337 1 3 0.613784 21.5142 45.5042 0.0351433 -0.00418282 0.0109431
338 1 1 0.394372 22.4514 45.2565 0.174608 -0.0113505 0.101913
339 1 3 0.0415551 23.3893 44.7906 -0.0134018 -0.113832 0.12484
340 1 1 54.9084 15.5247 42.9101 0.148296 -0.0775632 -0.0796829
341 1 3 58.1579 14.8613 44.2175 0.00489325 0.104438 -0.0262239
342 1 1 59.0245 15.0673 44.5677 0.104709 0.0204476 -0.050441
343 1 3 59.7538 15.4765 45.1804 -0.0420353 0.000484653 -0.113622
344 1 1 55.519 15.26 43.0794 0.0819943 -0.0697737 0.0345564
345 1 3 56.5135 15.0591 43.2772 -0.000192827 0.0368995 0.0582733
346 1 1 57.3373 14.8829 43.7958 -0.0564805 0.214217 -0.079951
347 1 3 58.1259 15.0578 43.3844 0.156019 0.17612 -0.130442
348 1 1 54.5747 16.0238 42.4022 -0.132813 -0.131419 -0.0278675
349 1 3 54.3101 16.6899 41.8712 0.0752904 -0.105966 -0.0672879
350 1 1 53.9881 17.5515 41.3811 0.0834341 -0.174335 0.126343
351 1 3 53.5512 20.5848 40.9443 -0.00149181 0.00418208 -0.114531
352 1 1 53.9531 21.3517 40.8414 0.0827363 -0.159577 0.0632636
353 1 3 54.4127 22.1673 40.7104 -0.037113 0.0254386 0.00144063
354 1 1 54.9157 22.9455 40.7781 -0.102411 0.0648337 -0.105589
355 1 3 55.6231 23.7733 40.7747 0.0335382 0.0278811 0.0228981
356 1 1 56.3647 24.4898 40.7899 -0.0552257 0.137708 -0.0216832
357 1 3 57.1984 25.0073 40.9149 0.0321032 -0.0990541 0.0178022
358 1 1 58.127 25.4247 40.8371 -0.0567353 0.103255 -0.0466146
359 1 3 59.1378 25.7983 40.579 0.053546 -0.0358259 0.0891566
360 1 1 53.6144 18.5387 41.0498 -0.0978431 0.066618 0.0638073
361 1 3 53.6293 19.6926 40.6495 0.0567838 0.0951462 -0.20113
362 1 1 60.568 16.1334 45.0861 0.0202716 0.0941528 -0.0419032
363 1 3 61.2204 16.5599 45.124 -0.0849103 -0.0760556 -0.0439349
364 1 1 61.9655 17.3186 45.0024 0.00174519 0.135776 -0.253633
365 1 3 0.484825 18.0788 44.9773 -0.0529017 0.0614583 -0.17644
366 1 1 60.1459 26.081 40.5666 -0.13669 0.15369 0.063011
367 1 3 60.7191 25.785 41.3114 0.0181632 -0.185673 0.0334941
368 1 1 61.4295 25.3909 41.9434 -0.0519042 0.0405742 -0.0840238
369 1 3 0.907626 18.9434 44.8085 -0.0490854 0.00759381 -0.137977
370 1 1 61.7952 24.8944 42.7313 -0.118452 0.00595824 0.006042
371 1 3 0.215411 24.2444 43.4174 -0.0162118 0.153383 -0.0453064
372 1 1 0.521799 23.5255 43.9915 -0.0734821 -0.0421111 0.0527567
373 1 3 0.976226 19.8317 44.9317 -0.0924105 -0.255744 -0.192346
374 1 1 1.0594 20.8316 44.878 -0.0542052 -0.061541 -0.0518546
375 1 3 1.05031 21.7945 44.6778 0.0322069 0.00982182 -0.159515
376 1 1 0.782376 22.7486 44.4919 0.0504308 -0.184576 -0.147964
377 1 3 55.4927 15.7561 42.2043 0.0496495 -0.0333515 -0.174261
378 1 1 58.937 15.1735 43.6873 -0.0794206 -0.0853432 0.0164044
379 1 3 59.5401 15.3847 44.0534 0.0146018 -0.0244836 0.0806943
380 1 1 60.2227 15.8211 44.1496 0.0716892 -0.021072 -0.15182
381 1 3 56.39 15.4032 42.455 0.00758063 -0.0397797 -0.0591539
382 1 1 57.2688 15.1718 42.8959 0.0835604 -0.0674767 0.0595632
383 1 3 58.0842 15.3345 42.4792 -0.147138 0.165618 -0.0299963
384 1 1 58.6488 15.3036 43.0148 0.019526 -0.0307909 0.157651
385 1 3 55.0295 16.351 41.5116 -0.0216128 0.0428557 0.299822
386 1 1 54.6448 17.1844 41.0882 0.192897 0.00544284 -0.0385525
387 1 3 54.3306 17.9329 40.4873 0.0260033 -0.234429 0.187886
388 1 1 53.9273 20.6008 40.2868 0.0794252 -0.0622691 0.0625189
389 1 3 54.385 21.5355 40.0302 -0.0071464 -0.0104664 -0.0453063
390 1 1 54.8261 22.4553 39.9196 -0.130715 -0.237346 -0.0286166
391 1 3 55.399 23.3455 39.8821 -0.0734954 0.0523786 0.216856
392 1 1 55.9539 24.1362 39.9462 0.0537338 0.0774848 0.0371662
393 1 3 56.7835 24.8234 39.9273 0.15718 -0.0304082 -0.0709635
394 1 1 57.5881 25.2945 40.0438 -0.046427 -0.079643 -0.100015
395 1 3 58.5478 25.7587 39.883 0.0822204 -0.056665 0.168185
396 1 1 59.5684 26.1649 39.7633 -0.0105888 -0.0898874 -0.0162327
397 1 3 54.0281 18.8955 40.1626 0.206758 0.0135107 -0.0576429
398 1 1 54.1435 19.8891 39.7734 0.0554204 -0.0725445 0.0412508
399 1 3 60.8818 16.2643 44.1966 0.0202527 0.0055605 0.0415777
400 1 1 61.6727 16.894 44.3054 0.19521 -0.0595609 -0.135668
401 1 3 0.373934 17.5893 44.1777 0.0824176 -0.0900259 -0.0456392
402 1 1 60.5538 26.3864 39.7168 0.0710378 0.140324 0.0409075
403 1 3 0.973571 18.364 44.1039 0.167922 -0.100372 0.0187912
404 1 1 61.1705 26.0418 40.4588 -0.0650266 -0.211052 0.157793
405 1 3 61.7589 25.6781 41.0986 0.113419 0.206368 0.143125
406 1 1 0.34336 25.1117 41.894 0.0875738 -0.213986 0.130139
407 1 3 1.36226 19.4278 44.1104 0.100822 -0.0866809 -0.0118502
408 1 1 0.694389 24.506 42.5661 -0.0424621 0.195492 0.115437
409 1 3 1.11437 23.7907 43.0831 -0.0561961 -0.183506 -0.0488856
410 1 1 1.32378 22.9881 43.6579 -0.0131325 0.0136836 -0.095339
411 1 3 1.5012 20.2447 44.1173 0.0140577 0.00614771 -0.0651976
412 1 1 1.57936 21.1649 43.9848 0.222612 0.103335 -0.015328
413 1 3 1.55379 22.1162 43.8536 -0.112437 -0.0171569 -0.128608
414 1 1 56.4082 15.6683 41.7482 -0.0947528 0.0303449 -0.00953887
415 1 3 55.9664 16.0118 41.1943 -0.0196428 -0.0706386 0.187604
416 1 1 59.6732 15.6255 43.1127 -0.0907171 -0.11686 0.0218175
417 1 3 60.5479 16.067 43.2367 0.0705092 0.125242 -0.0967967
418 1 1 57.3095 15.4711 42.0034 -0.026088 0.114119 -0.0245547
419 1 3 58.2107 15.5236 41.733 0.00803752 -0.164282 -0.104304
420 1 1 59.0564 15.5901 42.1923 0.240937 -0.0768608 0.106958
421 1 3 55.4297 16.6162 40.681 0.113661 0.0432418 -0.136921
422 1 1 55.0129 17.356 40.1436 -0.115802 -0.0398563 -0.0836063
423 1 3 54.6929 18.2012 39.7673 0.00937047 -0.0940483 0.0298023
424 1 1 54.4883 20.894 39.4159 -0.0107552 -0.035709 0.02416
425 1 3 54.8314 21.8199 39.2135 -0.111215 0.013504 0.0836635
426 1 1 55.3026 22.8219 39.1093 0.00629443 0.0570985 0.0594799
427 1 3 55.7804 23.6155 39.0024 0.170857 0.0647438 -0.0112559
428 1 1 56.3958 24.425 39.0991 0.179754 -0.00214011 0.0222756
429 1 3 60.024 26.4594 38.9707 0.198571 0.0832296 -0.0225903
430 1 1 57.154 25.0999 39.0435 0.0207084 -0.0571155 0.0118895
431 1 3 57.9137 25.7433 39.0689 0.0121924 -0.0726949 0.251922
432 1 1 58.9594 26.1641 39.1064 0.00582695 -0.140531 0.084142
433 1 3 54.5467 19.0889 39.4296 0.0393498 0.198716 -0.0881852
434 1 1 54.6757 20.1653 38.9822 -0.00565386 0.0511602 -0.00192735
435 1 3 61.3352 16.6262 43.4152 -0.0755726 -0.187429 0.192197
436 1 1 0.10941 17.2147 43.4096 0.0611779 0.0623348 -0.0745807
437 1 3 0.840627 17.9447 43.3594 0.0828868 -0.11201 0.102799
438 1 1 61.0561 26.6678 38.9232 -0.0699521 0.13431 -0.0348477
439 1 3 61.671 26.3751 39.624 0.211072 0.0603777 0.0461552
440 1 1 1.44153 18.7366 43.3605 -0.107757 0.0154751 -0.0490192
441 1 3 0.220692 26.0099 40.4267 0.00883863 0.0379346 -0.096416
442 1 1 0.781392 25.48 41.0983 -0.0999584 -0.0334722 0.131211
443 1 3 1.20243 24.8866 41.7413 0.0011196 0.119281 0.00453738
444 1 1 1.82303 19.6787 43.3033 0.0702677 -0.0653257 -0.059287
445 1 3 1.56255 24.1708 42.2092 -0.00104711 -0.0819747 0.0328135
446 1 1 1.81971 23.359 42.761 -0.0889479 -0.131952 0.0292404
447 1 3 2.01122 22.4514 43.0642 0.0242936 0.0123417 0.143113
448 1 1 1.97141 20.575 43.3021 -0.0346733 -0.0912161 0.173295
449 1 3 2.12466 21.5471 43.1884 -0.158632 0.0288017 -0.209243
450 1 1 56.8766 15.7945 41.2109 -0.141849 0.0729486 -0.0907168
451 1 3 56.3393 16.3231 40.4855 0.139158 0.00859387 -0.030724
452 1 1 60.1268 15.9717 42.2433 0.173282 0.104386 0.0840039
453 1 3 60.9826 16.4295 42.4601 -0.0395652 0.08472 0.111407
454 1 1 57.7875 15.7272 41.0842 0.0923069 -0.0503003 -0.0464681
455 1 3 58.6474 15.7407 41.2401 -0.0931798 0.0732422 0.116822
456 1 1 59.5914 15.9982 41.3593 0.041432 0.0470083 -0.155064
457 1 3 55.8501 16.9285 39.8819 0.0510486 0.0894416 -0.0880234
458 1 1 55.4262 17.6958 39.3047 0.0291441 -0.13861 0.113
459 1 3 55.1995 18.5091 38.9402 -0.0284154 0.0805208 -0.0543207
460 1 1 54.8988 21.1307 38.6859 -0.0525001 0.154357 -0.0145371
461 1 3 55.3131 22.1309 38.3743 -0.00678415 -0.0213877 0.00182693
462 1 1 55.7542 23.1195 38.2322 -0.151161 -0.216803 0.0926917
463 1 3 56.2326 23.9688 38.2078 -0.00700104 0.131468 -0.0807491
464 1 1 56.8709 24.7442 38.18 0.0162857 -0.0592813 -0.025623
465 1 3 60.466 26.7862 38.1435 0.0447611 0.00484257 0.0271473
466 1 1 59.4093 26.4823 38.2837 -0.00963452 -0.000383294 -0.0606963
467 1 3 57.5947 25.4293 38.2509 0.0159936 -0.234808 -0.000221646
468 1 1 58.4609 26.0986 38.2804 -0.203239 0.00378471 -0.0237533
469 1 3 55.0916 19.4271 38.5674 -0.0477251 0.0480048 -0.0896246
470 1 1 55.1666 20.326 38.1308 0.0710786 -0.122714 -0.0215037
471 1 3 61.7546 16.9522 42.5194 -0.10835 0.0709952 0.123049
472 1 1 0.548796 17.5327 42.5266 -0.111701 -0.054204 0.0379189
473 1 3 1.29899 18.2371 42.5292 0.0403236 0.0075779 0.0789586
474 1 1 61.5193 26.9495 38.0681 -0.00721489 0.120538 -0.00995961
475 1 3 0.130824 26.7345 38.8633 -0.117337 0.137782 -0.0335479
476 1 1 0.741594 26.3502 39.5441 -0.0823624 -0.0407712 -0.211765
477 1 3 1.83862 19.011 42.5138 0.00239571 0.0337731 -0.0153751
478 1 1 1.18008 25.8438 40.327 0.057435 0.0279482 0.141043
479 1 3 1.66249 25.173 40.9221 -0.0570202 -0.179513 0.0424793
480 1 1 2.11091 24.4579 41.4376 0.159836 -0.00375319 -0.0458913
481 1 3 2.28889 19.886 42.439 0.190894 -0.00659676 -0.0294299