ITEM: TIMESTEP
0
ITEM: NUMBER OF ATOMS
57074
ITEM: BOX BOUNDS pp pp pp
0 62
0 62
0 62
ITEM: ATOMS id mol type x y z vx vy vz 
1 1 3 19.3414 7.45959 20.4676 0.191884 0.143633 -0.0377328 
2 1 1 19.5368 7.90813 21.1803 0.101692 -0.232786 -0.0255601 
3 1 3 18.6645 7.46254 21.0532 0.0805574 -0.00744895 0.239943 
4 1 1 18.8418 7.98698 21.7779 -0.0310139 -0.0910504 -0.103506 
5 1 3 18.4979 7.08038 20.2166 -0.12557 0.0641839 0.197194 
6 1 1 17.8919 7.59895 21.5776 -0.0249513 -0.0653469 -0.0595144 
7 1 3 17.9755 8.22103 22.3276 -0.106757 -0.0729184 -0.12241 
8 1 1 20.1062 7.87821 20.4012 0.00311842 -0.0444246 -0.0306278 
9 1 3 20.3621 8.48065 21.1306 0.00847646 0.0069205 0.0556329 
10 1 1 19.7149 8.49724 21.812 -0.0578554 -0.025708 0.017 
11 1 3 18.9754 8.60809 22.3738 0.0210199 0.0278384 0.0690114 
12 1 1 18.3443 8.9566 22.8661 -0.0178619 0.0344394 -0.0823738 
13 1 3 19.7435 7.42491 19.6108 -0.0435158 -0.0973657 -0.180642 
14 1 1 19.0672 7.13917 19.7466 0.142146 0.050634 0.0508045 
15 1 3 18.4992 6.90448 19.3226 0.0329174 0.0577246 -0.0165629 
16 1 1 17.7646 7.15189 20.7646 -0.0808406 -0.0881881 0.00999164 
17 1 3 17.6652 6.85752 19.8349 0.0470928 0.0249042 0.0349383 
18 1 1 17.5846 8.82533 22.8886 0.0407449 -0.0944639 0.166552 
19 1 3 16.991 8.40771 22.5417 0.0719487 0.0726704 0.0457684 
20 1 1 17.0477 7.85728 21.965 -0.0409488 -0.0954699 -0.134392 
21 1 3 16.963 7.37519 21.233 -0.0827769 -0.10174 0.115054 
22 1 1 20.1323 7.5951 18.9965 -0.0394292 0.0931335 -0.0657214 
23 1 3 20.5769 8.0404 19.7675 -0.100413 -0.0652257 0.0123627 
24 1 1 20.8921 8.59663 20.4299 0.133318 -0.0875585 0.0276977 
25 1 3 21.0492 9.16108 20.9907 0.114107 -0.0937209 0.0705747 
26 1 1 20.5028 9.20839 21.7723 -0.0180569 -0.124518 -0.0999179 
27 1 3 19.8249 9.28996 22.4201 0.0569315 -0.0817498 0.147083 
28 1 1 17.7272 9.49455 23.2853 -0.176934 -0.063222 -0.148342 
29 1 3 19.1595 9.50886 22.9256 -0.00947667 -0.0652686 0.0556631 
30 1 1 18.4733 9.86659 23.3313 -0.0960239 -0.0392901 -0.0850406 
31 1 3 19.2901 7.1391 18.7909 0.116161 0.200099 0.135951 
32 1 1 18.3727 6.85899 18.5877 -0.0502644 -0.158199 0.0812004 
33 1 3 17.6333 6.75656 18.9666 -0.0323912 0.0170457 0.0125518 
34 1 1 16.8184 6.99761 20.3083 -0.014185 0.121348 -0.1335 
35 1 3 16.8528 6.79602 19.3332 -0.0622352 0.0466589 0.0340956 
36 1 1 16.9578 9.13596 23.0831 -0.0639938 -0.0735556 0.0351288 
37 1 3 16.2076 8.86279 22.7573 -0.0454402 0.14225 -0.0226043 
38 1 1 17.0034 9.91499 23.4765 -0.110742 -0.177538 -0.115556 
39 1 3 16.1368 8.23137 22.1791 0.104413 0.078511 0.11489 
40 1 1 16.088 7.76628 21.5856 -0.201249 0.0140204 -0.0712855 
41 1 3 15.9928 7.32184 20.7252 6.55822e-05 -0.101167 0.00946295 
42 1 1 20.0064 7.5495 18.2616 -0.00804738 -0.0101513 0.0607232 
43 1 3 20.7465 8.10669 18.3637 -0.0512304 -0.112785 -0.0150204 
44 1 1 21.0076 8.34309 19.0656 -0.0221335 0.0913629 -0.0135368 
45 1 3 21.1693 8.64421 19.7335 0.0577649 0.0209515 -0.099604 
46 1 1 21.4909 9.23849 20.0946 0.0480236 -0.108361 0.142305 
47 1 3 21.6513 9.88246 20.583 -0.0560787 0.104826 0.0138564 
48 1 1 21.1707 9.91861 21.4963 0.058528 0.105174 -0.11471 
49 1 3 20.5219 10.0339 22.3004 -0.0214454 0.105214 -0.099304 
50 1 1 19.8571 10.2083 22.879 -0.0984696 0.116099 -0.0287869 
51 1 3 17.7868 10.3081 23.605 -0.0143748 -0.009717 0.0114656 
52 1 1 19.1471 10.4504 23.3191 0.0129481 -0.0337434 -0.0502505 
53 1 3 18.4448 10.5616 23.5692 -0.0610721 0.153273 -0.0127515 
54 1 1 19.4377 7.31359 17.8384 0.0212458 -0.0221891 0.109717 
55 1 3 20.0401 7.8451 17.2386 0.169964 -0.0192033 -0.169458 
56 1 1 18.7614 7.02847 17.974 -0.0192285 0.0547994 -0.0987161 
57 1 3 17.8696 6.83874 18.038 0.0374522 -0.0650554 -0.0367861 
58 1 1 18.769 7.28318 17.0862 0.0129272 -0.0735216 0.0496972 
59 1 3 16.9402 6.78759 18.3488 -0.0251889 0.0986798 -0.102493 
60 1 1 15.9892 7.02234 19.7437 -0.0646098 0.323642 -0.126884 
61 1 3 16.1412 6.89667 18.7008 0.0597666 0.0279238 -0.068761 
62 1 1 15.5913 8.68765 22.378 -0.0352019 -0.0981354 -0.0289143 
63 1 3 16.2271 9.60066 23.2099 -0.0289596 -0.068982 -0.13025 
64 1 1 15.4658 9.37149 22.8116 0.110045 0.125968 -0.1939 
65 1 3 17.1493 10.784 23.7374 0.0403058 -0.14944 0.00423273 
66 1 1 16.3026 10.4157 23.5406 0.107135 -0.128463 0.0142059 
67 1 3 15.3325 8.32078 21.8663 -0.018585 0.0821001 0.102493 
68 1 1 15.221 7.81585 21.0709 0.320498 -0.227329 -0.0650967 
69 1 3 15.2224 7.4123 20.1304 0.0201123 0.263322 -0.0838209 
70 1 1 20.62 8.12168 17.7547 0.0311423 0.102934 0.118233 
71 1 3 21.2109 8.64462 18.1426 -0.112928 0.0603851 0.0295881 
72 1 1 21.6501 9.20038 19.029 0.0307202 -0.0239195 0.0145686 
73 1 3 21.946 9.93749 19.6284 -0.0325525 -0.032893 -0.0100516 
74 1 1 22.0171 10.5859 20.2162 0.0928253 0.0246332 0.00465981 
75 1 3 21.6691 10.6606 21.1149 0.105818 0.135941 -0.0428699 
76 1 1 21.1119 10.7737 21.9847 0.1189 0.124505 -0.0343571 
77 1 3 20.4194 10.9238 22.6965 -0.0489306 -0.00705428 0.0180304 
78 1 1 19.7601 11.1435 23.1763 -0.219177 0.0325239 0.0597799 
79 1 3 17.9843 11.1348 23.758 0.0416408 0.164076 -0.0245708 
80 1 1 18.9211 11.4189 23.5729 0.0557231 -0.075155 -0.200111 
81 1 3 17.3022 11.6785 23.8356 0.112055 0.0209264 0.113539 
82 1 1 20.5268 8.49582 16.7473 0.137623 0.0808557 -0.127767 
83 1 3 19.3628 7.66971 16.7552 0.0132751 -0.039951 0.0896235 
84 1 1 19.9104 8.13463 16.5094 -0.0307385 -0.243946 -0.135334 
85 1 3 18.1797 7.09974 17.1889 -0.00386512 -0.011079 -0.127317 
86 1 1 17.214 6.96422 17.3858 -0.00296665 0.0835273 -0.0989742 
87 1 3 18.442 7.49121 16.4469 -0.0826403 -0.0340174 0.0058587 
88 1 1 16.2566 7.0038 17.689 0.000668502 -0.130172 -0.0748431 
89 1 3 15.2661 7.2089 19.0859 -0.00483729 -0.181279 -0.104122 
90 1 1 15.4601 7.19636 17.9911 0.0815246 -0.0943039 0.118121 
91 1 3 14.7445 9.0279 22.1228 -0.14744 -0.00613843 -0.0255558 
92 1 1 15.4792 10.1105 23.1738 -0.176607 0.0962376 0.117106 
93 1 3 14.7179 9.8684 22.647 -0.00765212 -0.117636 0.0583978 
94 1 1 16.4043 11.3016 23.7253 -0.192237 0.0507445 0.016916 
95 1 3 15.5421 10.9418 23.4277 -0.0648205 -0.198651 0.0719604 
96 1 1 14.5282 8.4601 21.3284 0.202149 -0.0148894 0.0588782 
97 1 3 14.5123 7.96539 20.4559 0.017656 0.00832458 -0.302913 
98 1 1 14.5232 7.66026 19.366 -0.0263918 0.170436 -0.00521912 
99 1 3 21.1093 8.83155 17.2915 -0.127665 -0.152922 -0.0774797 
100 1 1 21.6937 9.4631 17.8736 -0.0134418 0.0175337 0.017173 
101 1 3 22.0653 10.1046 18.5417 -0.0371895 0.120171 0.176871 
102 1 1 22.2495 10.8006 19.1983 -0.139341 0.112557 -0.0268403 
103 1 3 21.9693 11.2375 20.689 0.0292416 0.0593981 -0.172419 
104 1 1 22.1996 11.3612 20.0036 0.129025 0.0429258 -0.105654 
105 1 3 21.5876 11.6418 21.4922 -0.12271 -0.0975343 0.0799765 
106 1 1 20.8781 11.665 22.3804 -0.0468609 0.00228749 -0.0201543 
107 1 3 20.1993 11.8462 22.945 0.0794068 0.128448 0.115076 
108 1 1 19.6141 11.9633 23.2898 -0.143624 -0.0242139 -0.0122403 
109 1 3 16.5522 12.2371 23.8147 0.0232434 0.122004 0.105583 
110 1 1 18.2026 12.0569 23.7539 -0.0687602 -0.00688982 -0.082429 
111 1 3 19.0689 12.4256 23.4829 0.0641017 -0.123918 0.0312891 
112 1 1 17.4306 12.6398 23.8272 0.0220989 0.0346608 0.0817672 
113 1 3 20.0439 8.65178 15.9771 -0.111403 -0.160364 -0.104014 
114 1 1 20.8276 9.11351 16.3879 0.0854779 -0.0100209 -0.071811 
115 1 3 19.1136 8.15635 15.8329 -0.038757 0.0691777 0.0509076 
116 1 1 19.4378 8.90184 15.2917 0.0191555 -0.148092 0.0388393 
117 1 3 17.5651 7.3485 16.4672 -0.109648 -0.0685187 -0.164513 
118 1 1 16.5567 7.29861 16.6951 -0.0824674 -0.0304448 -0.0350412 
119 1 3 17.9609 7.90542 15.6923 -0.216684 0.0248538 0.0177813 
120 1 1 15.6045 7.41606 17.0495 -0.251272 -0.0729741 -0.0919166 
121 1 3 14.6508 7.5676 18.3551 -0.107298 0.129508 0.0526552 
122 1 1 14.9214 7.64384 17.3386 0.057669 0.0220687 0.0304455 
123 1 3 13.946 9.23091 21.49 -0.142076 0.0139541 0.078511 
124 1 1 14.1447 9.69772 22.075 -0.216097 -0.00509291 -0.041656 
125 1 3 14.7507 10.6128 22.9521 0.0666631 -0.0865305 -0.16737 
126 1 1 14.0586 10.3284 22.3179 -0.0936885 0.0173515 -0.100272 
127 1 3 15.7092 11.8784 23.6253 0.0904259 0.0534571 0.0545671 
128 1 1 14.9015 11.5992 23.2746 -0.00538541 0.0018049 0.149929 
129 1 3 15.8251 12.754 23.7467 -0.022025 -0.0215474 -0.140552 
130 1 1 13.9885 8.05459 18.6496 -0.0718751 -0.0225481 0.267788 
131 1 3 13.8816 8.70091 20.7486 -0.134057 0.0591954 -0.071831 
132 1 1 13.765 8.3425 19.5601 0.0851075 0.0841779 -0.087225 
133 1 3 21.4535 9.65591 16.8858 0.0694331 0.0444628 0.0803065 
134 1 1 21.9465 10.2404 17.5648 -0.0387866 0.117699 -0.190364 
135 1 3 22.3296 11.6884 19.3207 0.0895284 -0.0362365 0.0746745 
136 1 1 22.2257 10.849 18.1667 0.0466757 -0.0654968 0.104454 
137 1 3 22.3432 11.5496 18.5755 -0.0220926 -0.043658 -0.0314601 
138 1 1 22.0169 12.0116 20.618 -0.0931528 0.0687906 -0.0982724 
139 1 3 22.2448 12.1756 19.7797 0.051158 -0.00298817 -0.0568823 
140 1 1 21.6709 12.6448 21.1922 -0.0778394 0.0538086 0.00695261 
141 1 3 21.1255 12.4841 22.0327 0.0973259 0.0496855 0.154384 
142 1 1 20.5942 12.3559 22.5944 -0.0358683 0.00897641 -0.0411425 
143 1 3 19.8699 12.7659 23.0342 0.0305705 -0.0655375 0.00469394 
144 1 1 16.6923 13.1641 23.8519 -0.0275535 0.00367893 -0.1055 
145 1 3 18.363 12.9054 23.649 -0.0951581 -0.0257312 -0.00913683 
146 1 1 19.0251 13.1036 23.3945 0.130499 0.0412559 -0.124921 
147 1 3 17.5711 13.5423 23.7713 -0.188409 -0.0321823 -0.0523549 
148 1 1 20.2668 9.33586 15.5655 0.0448931 -0.00755316 -0.0338092 
149 1 3 21.0294 9.91758 15.983 0.0346454 0.117071 -0.0956635 
150 1 1 18.3875 8.58404 15.1037 0.0519663 0.0337887 -0.0501909 
151 1 3 19.7514 9.67877 14.9671 0.0864348 -0.0270135 -0.131631 
152 1 1 18.7784 9.38468 14.6665 -0.104458 0.109785 0.14913 
153 1 3 16.9433 7.76758 15.8354 -0.044339 -0.00680761 -0.0912014 
154 1 1 15.9513 7.78598 16.1264 0.00693616 -0.0397015 -0.0330126 
155 1 3 17.4015 8.34829 15.1679 -0.0344354 -0.0571626 0.0666238 
156 1 1 15.0143 7.98684 16.5162 0.0302397 -0.139598 -0.0285856 
157 1 3 14.1761 8.05416 17.7125 0.0446228 -0.0118831 0.137326 
158 1 1 14.4585 8.12657 16.9655 -0.0758074 0.0306211 -0.0189937 
159 1 3 13.4808 9.40137 20.9525 0.138674 -0.126884 -0.0216146 
160 1 1 13.4942 10.099 21.5507 0.0962563 0.198046 0.201867 
161 1 3 13.5594 10.9331 22.0743 -0.23215 0.153794 0.194584 
162 1 1 14.0785 11.3157 22.6974 0.0451512 0.0990696 -0.0229648 
163 1 3 15.0257 12.48 23.4919 -0.0255 -0.0865807 -0.0308599 
164 1 1 14.4138 12.183 23.1565 0.102484 -0.0101387 -0.160431 
165 1 3 15.8868 13.6547 23.822 0.190307 0.131889 0.125707 
166 1 1 15.249 13.1869 23.6627 0.0688151 -0.0987095 -0.187572 
167 1 3 13.4744 8.59707 18.7073 0.0571277 -0.0915099 -0.0506031 
168 1 1 13.643 8.51504 17.9586 0.0780081 -0.0530374 -0.0200498 
169 1 3 13.2705 9.20454 20.1952 -0.0786831 -0.0121508 0.12392 
170 1 1 13.1235 9.11863 19.2625 0.0977637 -0.0744353 0.296606 
171 1 3 21.6412 10.5588 16.5554 0.00770235 0.00332141 0.112662 
172 1 1 22.0265 11.1539 17.1602 -0.189154 0.0323864 -0.0322539 
173 1 3 22.3204 12.3 18.992 0.272093 0.00691019 -0.0329211 
174 1 1 22.2167 11.7905 17.6729 -0.0629141 -0.0508197 -0.0123025 
175 1 3 22.2957 12.2654 18.2812 -0.0719539 0.127047 0.00210103 
176 1 1 22.1722 12.9635 19.3902 -0.0915238 0.132414 0.0124913 
177 1 3 22.0029 12.85 20.3076 -0.0389906 -0.187574 -0.012335 
178 1 1 21.5921 13.51 20.8182 -0.0168212 0.0722899 -0.0100385 
179 1 3 21.1565 13.3188 21.6751 -0.0577599 -0.181455 0.0126023 
180 1 1 20.575 13.068 22.4244 -0.00758395 -0.0597178 0.0982341 
181 1 3 20.0546 13.6589 22.6583 0.137041 -0.00399182 -0.0335378 
182 1 1 19.4831 13.6881 23.0437 -0.254128 -0.044801 -0.0292449 
183 1 3 16.7771 14.1384 23.8451 -0.0629856 0.0191267 0.120349 
184 1 1 15.8843 14.4313 23.8565 0.117647 0.0674967 0.0704248 
185 1 3 18.5302 13.8663 23.4722 0.0625221 -0.0681199 -0.0444776 
186 1 1 17.6302 14.3144 23.6997 -0.0196222 0.153291 -0.173922 
187 1 3 20.4935 10.22 15.2582 0.0454104 -0.0697481 0.0191385 
188 1 1 21.1624 10.8506 15.7247 -0.0225726 -0.0336977 -0.216246 
189 1 3 17.786 9.02964 14.6612 -0.0281701 -0.00121361 -0.14419 
190 1 1 17.9339 9.74217 14.2927 0.21567 -0.107874 -0.112639 
191 1 3 19.9354 10.4306 14.7625 0.0491752 -0.00127105 -0.090979 
192 1 1 19.3139 10.1983 14.5054 0.0134282 0.026772 0.0778084 
193 1 3 18.5572 10.1582 14.2515 -0.0357883 -0.0203284 -0.102258 
194 1 1 16.3373 8.33947 15.3203 -0.0979986 -0.173406 0.0389442 
195 1 3 15.3832 8.44392 15.6429 -0.00848447 0.071331 -0.085245 
196 1 1 16.7226 8.95418 14.7368 0.0142701 -0.0537342 -0.146968 
197 1 3 14.4222 8.68358 16.1882 -0.0372067 0.105679 -0.17351 
198 1 1 13.8612 8.64958 17.047 -0.104196 0.147287 0.0899504 
199 1 3 13.077 9.93315 20.6797 -0.225566 0.0105727 0.103907 
200 1 1 12.9178 10.559 20.9083 0.134174 -0.0618892 -0.0319376 
201 1 3 13.1076 11.021 21.5606 -0.0317978 -0.0436712 0.00837565 
202 1 1 13.307 11.667 22.1412 -0.0151263 -0.0991706 0.00947625 
203 1 3 13.673 12.4009 22.7444 0.221317 -0.00760967 -0.0756753 
204 1 1 14.29 13.1619 23.3123 -0.0293035 0.0638864 -0.0080242 
205 1 3 14.9427 14.1036 23.6929 0.16887 0.0868138 0.088398 
206 1 1 13.1143 9.14903 18.3249 0.00672073 0.0707783 -0.118776 
207 1 3 13.2736 9.23705 17.4066 0.113211 -0.0518974 -0.0142957 
208 1 1 12.8238 9.83597 19.7375 -0.060372 0.0106059 -0.0866095 
209 1 3 12.7452 9.81185 18.761 -0.0932122 0.011849 0.145776 
210 1 1 21.6627 11.5081 16.3119 0.0742923 0.011688 0.00372567 
211 1 3 21.9186 12.1194 16.8314 0.00276402 0.137311 -0.0699298 
212 1 1 22.1887 12.9711 18.4821 -0.024633 0.0155877 -0.1902 
213 1 3 22.053 12.8166 17.5025 0.0678267 -0.00569987 0.125937 
214 1 1 21.9629 13.6836 18.9116 -0.156622 0.00233125 0.109761 
215 1 3 21.8644 13.6335 19.8844 -0.0234952 -0.0672699 -0.097035 
216 1 1 15.4008 15.0388 23.846 0.169376 0.0494653 -0.078798 
217 1 3 16.3578 15.1008 23.8553 0.0356419 -0.0593842 0.164623 
218 1 1 21.4548 14.3256 20.3105 -0.0956318 -0.0590307 -0.0643836 
219 1 3 21.1144 14.2326 21.1626 0.149738 -0.0873145 -0.150314 
220 1 1 20.5637 14.0492 22.0313 -0.07412 -0.150441 0.0261064 
221 1 3 19.8108 14.3972 22.613 -0.316055 0.23428 0.138985 
222 1 1 19.0966 14.6107 23.0521 0.0509258 -0.0635684 0.0290589 
223 1 3 17.2657 14.9777 23.7269 -0.0326439 -0.0181878 0.167592 
224 1 1 18.1736 14.9019 23.453 -0.166311 -0.127508 0.0701303 
225 1 3 21.1689 11.8566 15.6073 -0.140746 0.214263 0.061295 
226 1 1 20.4703 11.2343 14.9614 0.175505 -0.0966918 0.112836 
227 1 3 17.0058 9.66379 14.3046 0.154668 0.0144632 0.0697369 
228 1 1 17.4004 10.252 14.066 -0.0945698 0.180817 0.10686 
229 1 3 18.0329 10.5585 14.0286 0.0172161 -0.012334 -0.000270403 
230 1 1 19.5777 11.0589 14.4117 0.000412455 0.0967092 -0.0149936 
231 1 3 18.7998 10.7978 14.1458 0.0214189 0.159231 0.0102631 
232 1 1 15.7695 9.04266 14.9414 0.0765281 -0.00954891 0.197742 
233 1 3 14.917 9.23256 15.2682 -0.0693674 -0.0793354 -0.105507 
234 1 1 16.072 9.67796 14.4688 -0.0140596 0.172367 -0.02803 
235 1 3 14.1646 9.61986 15.6273 -0.0571164 -0.169656 0.0156801 
236 1 1 13.6563 9.33422 16.4905 0.0420612 0.0945296 -0.075372 
237 1 3 12.652 10.5367 20.2207 -0.0836097 0.0595305 0.1115 
238 1 1 12.5056 11.3589 20.7561 -0.00336863 0.0803835 -0.0539424 
239 1 3 12.72 11.9435 21.5696 0.033756 0.158114 0.1113 
240 1 1 13.0032 12.6345 22.255 0.0331823 -0.125377 -0.00759106 
241 1 3 13.39 13.3687 22.8433 -0.0404363 0.0820538 -0.0594867 
242 1 1 13.8946 14.1668 23.3346 -0.0631996 0.0397174 0.0514893 
243 1 3 14.4444 15.0057 23.6703 -0.0336273 -0.034331 0.0218261 
244 1 1 12.8447 9.86102 17.7867 0.0449914 0.138416 0.0137303 
245 1 3 13.115 9.98556 16.8532 -0.0377082 0.0254682 0.0906228 
246 1 1 12.438 10.586 19.2593 -0.119665 -0.104883 -0.0445383 
247 1 3 12.4582 10.5684 18.2938 0.30828 0.014141 -0.0197439 
248 1 1 21.5195 12.4668 16.166 -0.131709 0.041973 -0.129908 
249 1 3 21.7036 12.9082 16.6597 -0.0611392 -0.0546592 0.165134 
250 1 1 21.8841 13.6613 17.9354 0.0685387 0.132289 0.000300067 
251 1 3 21.6319 13.5652 16.9936 -0.142831 -0.0663168 0.159018 
252 1 1 21.6211 14.4539 18.4274 0.160349 -0.02865 -0.0408174 
253 1 3 21.6246 14.4118 19.3923 0.0959263 0.113292 0.149934 
254 1 1 14.9806 15.9045 23.8494 0.00251477 0.042562 0.083191 
255 1 3 15.9272 15.8896 23.8719 -0.0666529 -0.101881 0.0641125 
256 1 1 16.8996 15.868 23.7343 -0.0309342 0.209376 0.149459 
257 1 3 21.2644 15.0768 19.8694 0.0543234 0.135823 0.0442363 
258 1 1 21.0104 15.0231 20.7134 0.238898 0.02366 0.0173511 
259 1 3 20.7198 14.8527 21.3913 -0.0104287 -0.0192162 0.0541792 
260 1 1 20.1518 15.1319 21.9952 -0.100652 0.164693 0.0467346 
261 1 3 19.5173 15.3705 22.527 0.022273 -0.00329377 -0.0100543 
262 1 1 18.709 15.5304 23.0621 0.00686963 -0.00406517 0.174086 
263 1 3 17.8384 15.7494 23.4535 -0.06364 0.135489 0.138598 
264 1 1 21.0692 12.6248 15.6078 0.0129535 0.0925973 -0.057861 
265 1 3 20.5844 12.3224 15.0637 0.0377891 -0.0161986 0.0333373 
266 1 1 19.8328 11.9547 14.4997 0.12256 0.046898 0.0388073 
267 1 3 16.4283 10.5 14.0847 0.011917 -0.0333109 -0.138261 
268 1 1 17.299 10.9977 13.8943 0.149682 0.0944627 -0.0858661 
269 1 3 18.1347 11.3189 13.9177 -0.13884 -0.0415288 0.0954082 
270 1 1 18.9947 11.6496 14.1157 -0.21948 -0.147902 -0.0370743 
271 1 3 15.263 9.84906 14.7101 0.0433963 -0.0784706 0.0179582 
272 1 1 14.6238 9.91681 15.0686 -0.0795486 0.201565 0.00647579 
273 1 3 15.5849 10.3579 14.3711 -0.0473637 -0.00272845 0.0117336 
274 1 1 14.1315 10.4273 15.2486 -0.0283311 0.0689667 -0.102558 
275 1 3 13.5496 10.1766 15.9961 0.136194 0.137269 -0.166076 
276 1 1 12.1985 11.3225 19.7461 0.124862 0.0433267 -0.0281024 
277 1 3 12.0056 11.9828 20.1075 -0.0342579 -0.0245281 -0.174684 
278 1 1 12.1102 12.3782 20.8384 -0.0560884 -0.0123109 0.0919983 
279 1 3 12.3326 12.865 21.5779 0.0541982 0.0296378 -0.031019 
280 1 1 12.6293 13.5253 22.2648 0.0145782 -0.200466 0.0888141 
281 1 3 13.0269 14.2285 22.8524 -0.133913 -0.0680392 -0.171168 
282 1 1 13.5205 15.032 23.3385 -0.155868 -0.160383 0.22578 
283 1 3 14.0426 15.9233 23.6756 -0.0616808 0.215974 0.108444 
284 1 1 12.6315 10.6457 17.3757 -0.0235838 0.0131349 -0.0706896 
285 1 3 12.9309 10.8375 16.5248 -0.0272821 -0.12873 0.062406 
286 1 1 12.1224 11.2922 18.7887 -0.0215941 0.0793461 -0.0565051 
287 1 3 12.2322 11.2999 17.8309 -0.142022 0.131679 0.0829199 
288 1 1 21.2157 13.398 16.1217 -0.057083 0.031369 -0.106657 
289 1 3 21.5015 14.2833 17.4638 0.0149924 0.150926 -0.0678856 
290 1 1 21.2955 14.1201 16.7752 0.0404158 -0.180084 -0.0555885 
291 1 3 14.5881 16.8132 23.8564 0.0331341 0.0928442 -0.135724 
292 1 1 21.2596 15.1493 17.9542 0.0600998 -0.00941289 0.0692105 
293 1 3 21.3398 15.1667 18.9107 -0.0279269 -0.0314437 -0.100144 
294 1 1 15.531 16.7797 23.8815 -0.049828 -0.0504948 -0.0528653 
295 1 3 16.5079 16.7292 23.7502 0.123482 0.0379582 -0.00338544 
296 1 1 17.4244 16.6138 23.4827 -0.0186002 -0.197988 0.210201 
297 1 3 21.0109 15.8505 19.4702 -0.0785802 -0.119438 -0.0840595 
298 1 1 20.9424 15.6113 20.2374 -0.143275 -0.0808032 -0.0784675 
299 1 3 20.4848 15.7884 21.1344 0.224399 -0.105502 0.079784 
300 1 1 19.8459 16.0913 21.8899 0.111886 0.115796 0.257015 
301 1 3 19.1429 16.2601 22.5359 -0.00315166 0.175103 -0.0242224 
302 1 1 18.3211 16.4519 23.0711 -0.0429613 0.112092 -0.195325 
303 1 3 19.1639 12.5521 14.2466 0.0329494 0.0408515 0.0020394 
304 1 1 20.6497 13.1667 15.3538 -0.0595266 0.0609756 -0.0243389 
305 1 3 19.9568 12.8819 14.7206 -0.0152354 0.0138972 0.0539399 
306 1 1 15.6367 11.07 14.1898 0.21594 -0.0443766 -0.137948 
307 1 3 16.5044 11.4372 13.9197 -0.128833 -0.0317876 0.130464 
308 1 1 17.4042 11.8171 13.8376 0.153179 -0.0154737 -0.1145 
309 1 3 18.302 12.1921 13.9483 -0.170943 0.0729397 -0.155453 
310 1 1 14.8359 10.7285 14.6376 -0.0532504 0.144054 -0.0811734 
311 1 3 14.072 11.2161 15.0283 0.122534 -0.0204564 -0.059722 
312 1 1 13.4403 11.1163 15.6579 -0.010707 0.0727941 -0.00469934 
313 1 3 11.8044 12.0915 19.2532 0.0568243 0.094014 0.041299 
314 1 1 11.6952 12.6699 20.0341 0.111215 -0.0982436 0.0265639 
315 1 3 11.7633 13.2206 20.8657 -0.118879 0.0592334 0.073962 
316 1 1 11.943 13.787 21.5879 -0.0214673 -0.0923456 0.101522 
317 1 3 12.2412 14.446 22.2755 -0.0327655 0.1448 0.0258257 
318 1 1 12.6392 15.1494 22.8618 0.0524123 0.00981556 -0.12841 
319 1 3 13.1415 15.9901 23.3597 -0.144353 -0.0369687 -0.131434 
320 1 1 13.6545 16.8512 23.6852 0.0167154 0.259706 -0.123362 
321 1 3 12.4425 11.4577 16.9878 0.0218687 0.0160217 0.0212758 
322 1 1 12.7638 11.5564 16.3096 0.125356 -0.169227 -0.218041 
323 1 3 11.8595 12.0167 18.2442 -0.012494 -0.165422 0.112999 
324 1 1 12.0735 11.9111 17.4746 0.0859084 0.155505 0.112438 
325 1 3 20.572 13.9426 15.6112 0.0276518 -0.0783557 0.02042 
326 1 1 20.8279 14.3197 16.1294 0.0913867 0.0899754 0.0866072 
327 1 3 21.0118 14.972 16.9434 0.086429 0.219905 -0.0554836 
328 1 1 20.9198 15.7548 17.6059 0.107796 0.0753088 -0.0286598 
329 1 3 14.1915 17.7157 23.8633 0.161605 0.0545225 0.0932127 
330 1 1 15.1406 17.697 23.8899 -0.0826922 -0.118813 0.122999 
331 1 3 20.9876 15.9617 18.4634 0.0946561 0.00365841 -0.0348613 
332 1 1 16.1214 17.6504 23.7597 0.0170428 -0.262024 -0.0594092 
333 1 3 17.0378 17.5356 23.4918 0.00768291 0.116789 0.0445317 
334 1 1 17.9341 17.3734 23.0808 -0.00813472 0.0773631 0.161382 
335 1 3 20.7577 16.5248 19.1774 0.221589 0.0474955 -0.032099 
336 1 1 20.5868 16.5101 20.173 -0.119631 -0.132699 0.0545157 
337 1 3 20.0776 16.7872 21.1201 -0.0332709 -0.0710246 0.131383 
338 1 1 19.4825 16.9513 21.8992 -0.164434 -0.0183836 0.1062 
339 1 3 18.7551 17.1812 22.5443 -0.0118983 -0.054135 0.0821926 
340 1 1 15.1832 11.574 14.2905 -0.0606984 0.0775112 0.0472957 
341 1 3 18.3805 13.0935 14.0651 -0.13464 0.069102 0.0677333 
342 1 1 19.1472 13.4705 14.4149 -0.0151344 0.137753 -0.162481 
343 1 3 19.9297 13.8503 14.9922 -0.0506008 0.0752996 -0.0825906 
344 1 1 15.7879 11.9121 14.0377 0.112447 -0.0523877 0.0319148 
345 1 3 16.6285 12.3984 13.8621 -0.0062931 0.0663478 -0.166255 
346 1 1 17.5309 12.7452 13.8744 -0.0261775 -0.0778772 -0.0341871 
347 1 3 17.6724 13.6247 13.9562 -0.174407 -0.158651 0.142268 
348 1 1 14.4477 11.6517 14.6476 0.00388567 -0.0596074 -0.0548921 
349 1 3 13.7158 11.9065 15.0874 -0.059828 0.102298 -0.155723 
350 1 1 12.9579 12.168 15.7141 0.154525 0.142079 0.00616548 
351 1 3 11.5565 12.6644 18.5507 0.095452 -0.061316 0.101739 
352 1 1 11.3964 13.0592 19.2506 0.0837879 0.0613518 -0.0116223 
353 1 3 11.3226 13.5584 20.051 0.0369415 -0.0543782 0.0625031 
354 1 1 11.3721 14.0957 20.8287 -0.00374545 -0.0396018 -0.108718 
355 1 3 11.5541 14.7068 21.5982 0.0843863 0.126728 -0.0338219 
356 1 1 11.8524 15.3674 22.2858 0.0754974 0.00468187 -0.0224405 
357 1 3 12.2524 16.0714 22.8717 -0.0497744 0.127847 0.0426462 
358 1 1 12.7519 16.9101 23.367 0.0646274 -0.126426 0.0600366 
359 1 3 13.2553 17.7917 23.6927 0.151656 -0.0614141 -0.14881 
360 1 1 12.2618 12.3747 16.5835 0.0121844 -0.0100877 -0.230391 
361 1 3 11.6812 12.7913 17.5564 -0.0406084 0.0140272 -0.0748238 
362 1 1 20.2227 14.6371 15.5581 0.000299383 0.0700224 -0.206453 
363 1 3 20.439 15.2417 16.1379 -0.0624225 0.0550437 0.0326575 
364 1 1 20.5592 15.9692 16.8812 0.0458596 -0.0492787 0.00362275 
365 1 3 20.6464 16.4568 17.6944 0.0955556 -0.00808876 0.151306 
366 1 1 13.821 18.6668 23.8748 0.063037 0.0496613 -0.0433741 
367 1 3 14.7402 18.615 23.8987 0.147935 -0.0184875 -0.00563684 
368 1 1 15.7256 18.5731 23.7676 0.0143743 0.054431 -0.0274984 
369 1 3 20.5812 16.9302 18.4856 0.0510604 -0.000970952 -0.0375804 
370 1 1 16.65 18.4581 23.5004 0.216532 -0.174299 -0.156946 
371 1 3 17.5467 18.2951 23.0897 0.0809849 -0.022785 -0.0998753 
372 1 1 18.3681 18.1032 22.5536 -0.0777676 0.154969 0.0686762 
373 1 3 20.4528 17.2047 19.3949 -0.101397 -0.0140031 -0.102736 
374 1 1 20.1599 17.4421 20.2935 0.0509927 -0.0800452 0.0410852 
375 1 3 19.7068 17.6554 21.1378 -0.0379068 -0.0647975 -0.0119372 
376 1 1 19.095 17.8733 21.908 0.00326732 0.224518 -0.0226492 
377 1 3 14.9854 12.4631 14.2279 -0.0238376 0.131271 0.0381165 
378 1 1 18.4298 14.0005 14.2105 0.0808692 -0.049783 0.0862154 
379 1 3 19.0715 14.2256 14.5442 -0.0143169 -0.0252329 0.0044719 
380 1 1 19.4375 14.8995 14.9641 0.0857647 0.0864453 0.0455883 
381 1 3 15.8863 12.9272 13.933 -0.158209 0.186281 0.159819 
382 1 1 16.7703 13.2938 13.8519 0.015187 0.0580747 -0.0223144 
383 1 3 16.9836 14.212 13.8968 0.0159966 0.0133742 0.202701 
384 1 1 17.7657 14.3368 14.0507 0.00719247 0.0560886 8.59448e-05 
385 1 3 14.0613 12.5739 14.6563 -0.0595031 0.0128699 0.0398025 
386 1 1 13.2277 12.7972 15.1906 0.040194 0.00777441 -0.0360947 
387 1 3 12.4867 13.0559 15.8381 -0.0972311 -0.140885 -0.0380764 
388 1 1 11.2821 13.3617 18.3472 -0.0878739 -0.0979468 -0.168468 
389 1 3 11.0428 13.8816 19.1669 -0.0782798 0.0622933 0.0964882 
390 1 1 10.9487 14.4277 20.0324 -0.00989058 -0.0130337 -0.0739412 
391 1 3 10.9841 15.0181 20.8386 -0.0608591 -0.00899403 -0.0788894 
392 1 1 11.1672 15.6297 21.6072 -0.00410738 0.12255 0.221586 
393 1 3 11.465 16.2897 22.2956 0.153034 -0.0792681 0.135208 
394 1 1 11.8644 16.9938 22.8808 0.0597671 -0.0837364 0.079688 
395 1 3 12.3546 17.8429 23.3725 0.170683 0.00945682 0.0577406 
396 1 1 12.8598 18.701 23.697 -0.282265 -0.186711 -0.145572 
397 1 3 11.8322 13.364 16.6168 -0.144237 0.085863 -0.121186 
398 1 1 11.3122 13.7492 17.4546 -0.0151188 -0.0219973 -0.156092 
399 1 3 19.7422 15.5322 15.4611 0.110438 0.00111572 0.00181971 
400 1 1 20.0512 16.1623 16.1467 0.137427 -0.0127944 0.0559343 
401 1 3 20.1983 16.8059 16.8715 -0.0675586 -0.0453095 -0.0383079 
402 1 1 13.3941 19.5496 23.8757 -0.0973543 -0.0914295 -0.00545995 
403 1 3 20.2701 17.3439 17.695 -0.00975531 -0.05377 -0.0349891 
404 1 1 14.3655 19.5567 23.9043 0.16456 0.0861221 -0.125156 
405 1 3 15.3213 19.4962 23.7791 -0.158041 0.0516094 0.120902 
406 1 1 16.2633 19.3779 23.508 -0.139034 0.189688 -0.00302877 
407 1 3 20.2409 17.7551 18.5868 0.00499746 0.0971321 0.0538362 
408 1 1 17.1593 19.2173 23.0981 0.0398472 -0.0356823 -0.114227 
409 1 3 17.9799 19.0254 22.5636 -0.0616321 -0.0337258 -0.0189835 
410 1 1 18.7068 18.7939 21.9174 -0.0262355 0.129321 -0.0662382 
411 1 3 20.0738 18.0891 19.4551 0.0387938 0.11086 -0.0432147 
412 1 1 19.767 18.3639 20.3158 0.0305879 0.171018 -0.0934578 
413 1 3 19.3179 18.6097 21.1231 0.0186796 -0.100438 0.124879 
414 1 1 15.2938 13.4229 14.0173 -0.104899 0.200889 -0.132841 
415 1 3 14.4936 13.4434 14.2695 -0.0134555 -0.162679 0.0805468 
416 1 1 18.4563 14.9992 14.4057 0.069074 0.128069 0.0231396 
417 1 3 18.9416 15.7778 14.8825 0.0402646 0.0334181 0.0540215 
418 1 1 16.0151 13.9129 13.8761 0.0141853 -0.112135 0.0778486 
419 1 3 16.4284 14.7569 13.8745 -0.0127266 0.0654905 0.0530285 
420 1 1 17.323 15.1972 14.0392 -0.0865931 0.0437011 0.0944595 
421 1 3 13.672 13.496 14.666 0.0376795 0.0750016 -0.0163488 
422 1 1 12.8515 13.6876 15.2016 -0.157176 -0.140431 0.116639 
423 1 3 12.1247 13.9182 15.8458 0.122879 -0.0441546 -0.0173986 
424 1 1 10.9157 14.2488 18.3044 0.0627267 0.076558 -0.076299 
425 1 3 10.6643 14.7802 19.1558 0.0430279 -0.0411054 0.00226184 
426 1 1 10.5606 15.35 20.0411 0.068627 -0.0369718 -0.0327998 
427 1 3 10.5979 15.94 20.8479 -0.0794285 -0.0144626 -0.00496187 
428 1 1 10.7796 16.5509 21.6169 -0.0882786 -0.00949619 -0.0230109 
429 1 3 12.474 19.6018 23.7037 0.186639 0.0541428 -0.0183158 
430 1 1 11.079 17.211 22.3047 -0.171038 0.00105595 -0.0723074 
431 1 3 11.4779 17.9152 22.8907 -0.00182988 -0.15832 -0.125781 
432 1 1 11.9667 18.755 23.3797 0.0216034 0.0947303 0.0788951 
433 1 3 11.4707 14.2364 16.6164 0.0819612 -0.091213 0.12137 
434 1 1 10.9287 14.6748 17.4494 -0.0631773 0.168723 0.0149337 
435 1 3 19.3657 16.4226 15.469 -0.0679874 0.0168844 -0.13717 
436 1 1 19.6628 17.0839 16.1564 -0.0884181 -0.0366372 -0.0223389 
437 1 3 19.8442 17.6955 16.9256 0.0394566 -0.00908453 -0.0366978 
438 1 1 12.9877 20.4774 23.8818 0.0294663 0.0277466 -0.0157241 
439 1 3 13.9632 20.4643 23.9135 0.00650956 -0.0217372 0.0202298 
440 1 1 19.9087 18.2172 17.7293 -0.149207 0.0623849 0.112117 
441 1 3 14.9447 20.4217 23.784 0.0866822 0.0598511 -0.141197 
442 1 1 15.8749 20.3001 23.516 0.154127 -0.100589 0.0901753 
443 1 3 16.771 20.1389 23.1063 -0.188049 -0.0693531 0.0189075 
444 1 1 19.8635 18.6535 18.6135 0.00705449 0.086481 0.061235 
445 1 3 17.5922 19.9475 22.5715 0.110921 -0.0685832 0.00222989 
446 1 1 18.3195 19.7159 21.9256 -0.166831 -0.0485793 0.00546888 
447 1 3 18.9294 19.5284 21.1368 0.0320556 0.0190845 0.051396 
448 1 1 19.6877 19.0008 19.4734 0.046055 -0.174023 -0.0379595 
449 1 3 19.3774 19.2927 20.3215 0.0495286 0.0532069 0.0404754 
450 1 1 15.0753 14.1478 14.0038 0.0960246 0.0235934 -0.092607 
451 1 3 14.1257 14.2766 14.2843 0.0630356 0.121455 -0.0357461 
452 1 1 18.0154 15.9852 14.403 0.211925 0.134216 0.312351 
453 1 3 18.581 16.6398 14.8916 -0.0359503 0.032008 0.0326146 
454 1 1 15.6181 14.886 13.8827 0.0648473 0.111431 -0.0473195 
455 1 3 16.3333 15.526 13.8985 0.0120466 0.06149 0.016005 
456 1 1 17.0286 16.1843 14.0794 0.0956053 0.0642696 -0.119365 
457 1 3 13.2863 14.4176 14.6749 0.0800621 -0.105541 0.127043 
458 1 1 12.4647 14.6098 15.2104 0.0308298 0.0538176 0.0344856 
459 1 3 11.7378 14.8404 15.8551 -0.0796293 0.0388053 0.00449378 
460 1 1 10.5334 15.1633 18.3026 -0.11233 -0.16202 0.0501188 
461 1 3 10.2772 15.6994 19.1596 0.0964147 0.0684194 0.0477069 
462 1 1 10.1713 16.2751 20.0453 -0.0331484 0.00697733 -0.0775486 
463 1 3 10.2109 16.862 20.8567 -0.0760324 0.0368425 0.165417 
464 1 1 10.3927 17.4727 21.626 0.114372 0.0314424 0.0104759 
465 1 3 12.0853 20.5354 23.7129 0.0193627 0.00931624 -0.0386916 
466 1 1 11.5825 19.6807 23.3921 0.146235 -0.104544 -0.2409 
467 1 3 10.6915 18.1316 22.314 -0.110913 0.101426 0.0964562 
468 1 1 11.0894 18.8376 22.8993 -0.0528271 -0.101509 0.0132336 
469 1 3 11.0612 15.1822 16.6497 -0.0578247 -0.205979 -0.00639356 
470 1 1 10.5382 15.6031 17.4613 0.112795 -0.0455013 0.245278 
471 1 3 18.9774 17.344 15.478 0.0233248 0.03075 0.0608155 
472 1 1 19.275 18.0052 16.1656 -0.0520917 -0.141273 -0.0748804 
473 1 3 19.4551 18.6182 16.9333 0.188904 0.00459241 -0.110345 
474 1 1 12.6137 21.4043 23.8921 -0.053303 -0.164479 0.00525111 
475 1 3 13.5759 21.3723 23.9215 0.103276 -0.173705 0.0808637 