ITEM: TIMESTEP
100000000
ITEM: NUMBER OF ATOMS
61833
ITEM: BOX BOUNDS pp pp pp
0 62
0 62
0 62
ITEM: ATOMS id mol type x y z vx vy vz 
1 1 3 29.4508 50.7085 31.9964 0.301938 0.0443188 -0.122144
2 1 1 29.5275 51.5297 31.8242 0.00289481 -0.206624 -0.118231
3 1 1 28.5875 50.9915 31.8219 0.165459 -0.0180843 0.0441029
4 1 1 28.7057 51.827 31.5607 0.164531 -0.146621 0.0811391
5 1 3 28.5384 50.1543 31.8968 0.0185433 0.102144 -0.0202031
6 1 1 27.7113 51.3985 31.4501 0.210728 0.0609347 0.0317869
7 1 1 27.7895 52.2927 31.1011 -0.0157483 0.0755269 -0.0425977
8 1 1 30.2968 50.8988 31.8941 0.0295664 0.114701 0.0602885
9 1 3 30.5044 51.8247 31.5858 0.110025 0.149946 0.0993548
10 1 1 29.651 52.3153 31.5543 0.127774 -0.00760937 -0.00661783
11 1 1 28.8315 52.6247 31.2816 0.0803013 -0.0421949 -0.0935077
12 1 1 28.1675 53.1559 30.8017 -0.0328604 -0.120185 0.019644
13 1 3 29.9693 49.9187 32.0288 0.198045 -0.0345106 0.152005
14 1 1 29.2368 49.89 32.0018 0.0423213 0.111427 -0.118986
15 1 1 28.7802 49.2882 31.7597 -0.0452734 -0.0715318 0.030492
16 1 1 27.7301 50.508 31.5569 -0.233737 0.0109426 -0.0374924
17 1 3 27.9003 49.5152 31.5183 0.015248 0.0561732 -0.130996
18 1 1 27.4846 52.8671 30.6254 -0.127149 -0.205645 0.0895186
19 1 1 26.8666 52.3199 30.5414 -0.121741 -0.122914 -0.053656
20 1 1 26.9708 51.6661 30.9173 -0.0578465 -0.0369378 0.141666
21 1 3 26.95 50.8053 31.0583 0.106455 -0.0628762 -0.00721264
22 1 1 30.5627 49.4384 31.8517 0.116776 0.00195222 0.0748756
23 1 1 30.8183 50.3247 31.8 -0.126619 0.00574652 -0.012345
24 1 1 31.2139 51.2643 31.527 0.0736759 0.0851651 0.0421397
25 1 3 31.4125 51.9594 31.1891 0.0171735 0.0413869 -0.0434671
26 1 1 30.572 52.647 31.2605 -0.0819081 -0.0486326 -0.227559
27 1 1 29.7209 53.116 31.0544 -0.100078 -0.281533 0.212993
28 1 1 27.6637 53.6746 30.321 0.0471698 0.0839249 -0.0608603
29 1 3 29.0955 53.5854 30.7769 0.176279 -0.0993389 0.0986294
30 1 1 28.4277 53.9977 30.3799 0.00683716 0.00575388 -0.0631873
31 1 1 29.6689 49.0197 31.7808 -0.216476 -0.0881851 0.0718162
32 1 1 28.7477 48.5724 31.5526 0.0116214 0.170011 -0.20328
33 1 3 27.9832 48.6839 31.3486 -0.0376304 0.187307 0.0169455
34 1 1 26.9858 49.8637 31.1264 0.0653291 0.0224491 -0.0906644
35 1 1 27.2468 48.95 31.1367 0.226846 0.0204714 -0.0136292
36 1 1 26.954 53.1807 30.1534 0.128401 -0.0126774 -0.172738
37 1 3 26.2464 52.6456 29.9807 -0.0466383 0.207023 0.0123766
38 1 1 27.2136 53.9371 29.7107 -0.0315013 -0.040832 0.0994047
39 1 1 26.25 51.7929 30.3339 0.110199 0.150427 -0.07341
40 1 1 26.2552 51.1556 30.5193 -0.00172731 -0.166371 -0.0416842
41 1 3 26.1866 50.201 30.5421 -0.0836091 0.0498212 -0.14484
42 1 1 30.6431 48.722 31.5884 -0.179743 -0.0451896 -0.0201164
43 1 1 31.4805 49.1272 31.4014 0.0881956 -0.0962214 0.0643603
44 1 1 31.5401 49.9116 31.447 0.0230913 -0.0390866 0.160927
45 1 3 31.5743 50.68 31.4476 -0.0867578 0.0212384 0.128481
46 1 1 32.0225 51.2745 31.1296 -0.0290163 0.259579 -0.174173
47 1 1 32.2596 51.9791 30.6608 -0.0415989 -0.0719948 0.180254
48 1 1 31.4941 52.7552 30.8493 -0.0806211 0.0682703 -0.0119129
49 1 3 30.6317 53.4155 30.678 -0.131181 -0.0101529 -0.11479
50 1 1 29.9882 53.8938 30.3973 -0.0416453 -0.16809 -0.00309674
51 1 1 27.9499 54.3462 29.8606 -0.0906605 -0.0559773 0.0822288
52 1 1 29.2938 54.3191 30.1265 -0.197932 -0.0765041 0.0559727
53 1 3 28.5572 54.5081 29.8703 -0.0544669 -0.0360529 -0.0719927
54 1 1 30.0964 48.2631 31.4809 -0.140382 0.08454 0.213185
55 1 1 31.0579 47.9716 31.0304 -0.091404 0.109061 0.00447821
56 1 1 29.3721 48.1597 31.4943 0.139119 0.049806 0.00150129
57 1 3 28.5423 47.97 31.1869 -0.0502112 0.112584 -0.0554043
58 1 1 29.7879 47.4328 30.9595 0.0727248 0.0467018 -0.00809346
59 1 1 27.5537 48.0186 30.94 0.0196729 -0.0654422 -0.0217653
60 1 1 26.4176 49.2578 30.6948 -0.150474 -0.0185677 -0.129223
61 1 3 26.7531 48.2793 30.6242 -0.104277 -0.204005 0.0581003
62 1 1 25.7793 52.1927 29.7894 -0.0224156 0.251139 -0.0884934
63 1 1 26.4487 53.3794 29.6002 0.136613 0.0597959 0.102364
64 1 1 25.7307 52.8782 29.2642 0.118712 -0.0979842 0.00913148
65 1 3 27.5409 54.5389 29.1522 -0.0194934 0.0661495 -0.0137115
66 1 1 26.7013 54.0599 28.9778 -0.0872113 0.0140949 -0.0633861
67 1 1 25.6446 51.4961 29.8477 0.151306 0.103924 0.0344459
68 1 1 25.547 50.5954 30.0041 -0.0855121 0.0449907 -0.00542298
69 1 3 25.7432 49.5654 30.1208 -0.0836243 0.0752121 0.0725687
70 1 1 31.5869 48.5729 31.1354 0.0962113 0.0896443 -0.0757059
71 1 1 32.1181 49.1748 31.0047 -0.124746 0.0767213 0.0226764
72 1 1 32.3842 50.2872 30.9627 0.0409478 0.00186739 0.140949
73 1 3 32.7538 51.0959 30.5398 -0.035522 0.0192464 -0.0417291
74 1 1 32.8854 51.89 30.1655 -0.0496042 -0.03867 -0.0240174
75 1 1 32.3293 52.7517 30.2342 0.152829 0.0379343 0.0135611
76 1 1 31.5269 53.4412 30.2744 0.0187307 -0.0310833 -0.0332365
77 1 3 30.7946 54.1134 29.9192 0.0573133 -0.0621697 0.0509838
78 1 1 30.1036 54.5948 29.6574 0.155024 0.0546268 -0.109362
79 1 1 28.3611 54.8229 29.2531 0.0939677 -0.176424 0.00188067
80 1 1 29.2557 54.9681 29.2903 0.122989 0.134358 0.0290034
81 1 3 27.7968 55.0261 28.4758 0.00710398 -0.0234758 0.169254
82 1 1 31.8115 47.8373 30.4316 -0.0325751 -0.0204859 0.208076
83 1 1 30.6039 47.4108 30.7391 -0.0179054 -0.0184022 -0.0665073
84 1 1 31.3122 47.4299 30.428 0.155773 0.140797 0.110391
85 1 3 29.2149 47.3939 30.9643 -0.226104 0.119591 -0.0453138
86 1 1 28.1501 47.3099 30.6079 0.120141 0.0346501 -0.0260702
87 1 1 29.7553 46.8906 30.4687 -0.0581135 -0.0440964 0.0442741
88 1 1 27.2388 47.3816 30.2992 0.10852 -0.0580729 0.00299017
89 1 3 26.0204 48.5758 30.1373 0.110004 -0.123802 -0.0727776
90 1 1 26.4813 47.5894 29.9009 -0.0205855 0.0188157 -0.0622383
91 1 1 25.2492 51.8957 29.1056 0.0922792 -0.17867 -0.0965098
92 1 1 25.9919 53.4717 28.8371 -0.0228291 -0.0870962 -0.0502252
93 1 3 25.3614 52.7488 28.5287 -0.00270904 -0.0799515 -0.0682509
94 1 1 26.9845 54.5892 28.3762 0.064334 0.213601 -0.00226639
95 1 1 26.1866 54.1059 28.2398 -0.189578 0.0521018 -0.0760791
96 1 1 25.0862 50.9496 29.303 -0.0283539 -0.0912971 -0.177571
97 1 3 25.1515 50.0039 29.4951 0.0767877 0.0158789 0.0289268
98 1 1 25.34 48.8594 29.5554 -0.0481379 -0.0543335 0.0616728
99 1 1 32.3568 48.5339 30.5059 -0.224094 -0.0100683 -0.115359
100 1 1 32.9031 49.3778 30.3861 0.0449446 -0.0146003 -0.152516
101 1 3 33.2273 50.2304 30.1269 0.0507149 0.0693061 0.0502496
102 1 1 33.4316 51.0718 29.7612 0.0875999 -0.0755053 0.0281562
103 1 1 32.8584 52.6555 29.735 0.156245 0.0615606 0.0624928
104 1 1 33.3156 52.0808 29.5713 0.103827 -0.0426953 -0.187711
105 1 3 32.383 53.5369 29.5024 -0.0500469 0.0872346 -0.0425651
106 1 1 31.568 54.2031 29.4693 -0.0381822 -0.117677 -0.102795
107 1 1 30.784 54.6903 29.2086 0.0403415 -0.0335273 -0.0994023
108 1 1 30.1321 54.9776 28.9581 -0.046091 0.0466938 -0.0967143
109 1 3 27.4159 55.1131 27.654 -0.0584531 0.0681898 0.124536
110 1 1 28.746 55.2289 28.525 0.0914979 0.231861 -0.136385
111 1 1 29.7641 55.2893 28.4192 0.0239159 -0.011892 -0.142014
112 1 1 28.2724 55.3953 27.7259 -0.00603545 0.000377271 0.0143759
113 1 3 31.653 47.1237 29.8857 0.0737404 0.00723372 0.109184
114 1 1 32.3475 47.8058 29.8677 -0.0220118 0.0388653 0.0496641
115 1 1 30.7074 46.6907 29.9159 0.0359929 -0.146439 0.0566879
116 1 1 31.4105 46.477 29.1851 -0.0205479 -0.25002 -0.213751
117 1 3 28.9097 46.7835 30.2019 -0.0626356 0.0811356 -0.186745
118 1 1 27.9005 46.7152 29.8009 0.0774663 -0.09619 -0.202424
119 1 1 29.6746 46.2593 29.6728 0.213114 0.153925 0.0915105
120 1 1 26.9729 46.9016 29.4282 0.146694 -0.0276116 -0.0129324
121 1 3 25.7161 47.9807 29.3392 0.0205992 0.0733297 -0.15765
122 1 1 26.3414 47.1372 29.1265 -0.0268417 -0.0605968 0.0106067
123 1 1 24.8256 51.3811 28.3794 0.0672031 0.164986 -0.021255
124 1 1 24.9648 52.1047 28.2401 -0.0323529 0.0375977 -0.0142948
125 1 3 25.5361 53.4117 28.08 0.00362378 -0.0825286 0.0101181
126 1 1 25.0043 52.6526 27.8477 0.264896 -0.108902 -0.0274292
127 1 1 26.5479 54.7126 27.5829 0.168054 -0.0643643 0.0982936
128 1 1 25.8703 54.1568 27.4424 0.166043 -0.259189 0.016899
129 1 3 26.8487 55.1085 26.9296 0.103236 -0.0585209 0.163571
130 1 1 25.1653 48.3623 28.7445 -0.0805225 -0.165191 0.112508
131 1 1 24.74 50.4144 28.6773 0.120241 -0.01749 -0.0179848
132 1 1 24.8133 49.2393 28.6896 0.0848534 0.0574494 -0.182162
133 1 3 33.0084 48.5166 29.7943 -0.131127 -0.0779108 0.161078
134 1 1 33.4298 49.395 29.6635 -0.112563 0.174364 -0.133119
135 1 1 33.7528 51.602 29.126 -0.0874315 -0.0443475 0.0467817
136 1 1 33.6979 50.1854 29.2882 -0.149824 0.025232 -0.0776564
137 1 3 33.9069 50.8641 28.9596 -0.00695821 -0.0240862 -0.00865356
138 1 1 33.1381 52.9702 29.0926 0.0212721 -0.0520593 -0.00658289
139 1 1 33.6559 52.2809 28.8514 0.0506645 0.0769923 0.115059
140 1 1 32.8439 53.7252 28.5916 0.132617 0.0802935 0.193464
141 1 3 32.0801 54.2705 28.7694 -0.0434626 0.0117191 0.0411285
142 1 1 31.3741 54.617 28.8388 0.0492545 -0.111112 0.129851
143 1 1 30.731 55.0494 28.3456 -0.00174226 -0.12363 0.025208
144 1 1 27.7456 55.4916 26.9431 0.129585 0.0393301 0.0783808
145 1 3 29.2825 55.4882 27.8166 0.11147 0.0899813 0.0617587
146 1 1 30.0226 55.4351 27.8476 -0.0687264 0.110427 -0.0251517
147 1 1 28.6184 55.6834 26.9771 0.0609318 -0.0957358 0.180805
148 1 1 32.1616 47.0268 29.1915 0.0685771 -0.0110642 0.0271952
149 1 3 32.849 47.6868 29.1671 0.00350443 0.0272231 0.0617633
150 1 1 30.4483 46.0157 29.0583 -0.0153518 0.19965 0.0419097
151 1 1 31.9877 46.4619 28.5661 -0.0506442 -0.0656831 0.101481
152 1 1 31.1235 45.9214 28.3764 0.100713 0.052845 -0.000692998
153 1 3 28.7411 46.2151 29.3596 0.20561 -0.038653 -0.097442
154 1 1 27.7364 46.3169 28.9569 0.0026488 -0.137913 -0.0265302
155 1 1 29.5021 45.8526 28.9136 -0.0947974 0.067475 -0.0246623
156 1 1 26.7891 46.5335 28.6104 -0.127494 -0.0640107 0.0136941
157 1 3 25.6709 47.5277 28.5546 0.108161 -0.0602762 0.366134
158 1 1 26.2015 46.9002 28.3864 -0.0571774 0.0963204 -0.0069194
159 1 1 24.6127 50.867 27.9841 0.144101 0.026846 0.119936
160 1 1 24.7122 51.7398 27.4539 0.0455368 -0.0714461 -0.278599
161 1 3 24.8681 52.5553 27.0507 0.152387 -0.101369 -0.185879
162 1 1 25.2174 53.4384 27.0876 -0.0470501 0.23363 0.152924
163 1 1 26.1307 54.6943 26.7522 0.0593938 0.0609043 -0.219647
164 1 1 25.6435 54.2355 26.6457 -0.0197975 0.148566 -0.133009
165 1 3 27.2019 55.5352 26.2362 -0.0340222 0.0475464 -0.0457776
166 1 1 26.5377 55.1299 26.301 -0.0800203 0.220127 0.00543388
167 1 1 24.934 48.5609 28.0809 -0.0241879 0.000866282 0.0358811
168 1 1 25.2559 47.8755 27.9748 -0.00932235 -0.14263 0.105601
169 1 3 24.5231 50.1193 27.8361 -0.18548 0.107605 0.207126
170 1 1 24.6908 49.2802 27.5906 -0.0440057 -0.0240795 -0.0603579
171 1 1 33.511 48.5241 28.9867 -0.125476 0.0735793 -0.194113
172 1 1 33.8932 49.3277 28.7561 -0.298451 0.0666817 -0.0800906
173 1 3 34.0135 51.6009 28.5103 -0.0952254 -0.017093 0.0714915
174 1 1 34.1211 50.1105 28.4373 -0.224549 -0.0779135 -0.0729087
175 1 1 34.177 50.8936 28.2535 -0.044846 0.0684225 0.107853
176 1 1 33.9783 52.2797 28.0608 -0.0185367 0.0905558 -0.02754
177 1 3 33.4698 53.0417 28.2949 -0.0798856 -0.0682424 0.0442499
178 1 1 33.1882 53.6961 27.7127 -0.0280157 -0.187467 0.153113
179 1 1 32.3953 54.2871 27.9465 0.122838 0.0979643 -0.0768754
180 1 1 31.5556 54.7606 28.1403 -0.101895 0.0211295 -0.125186
181 1 3 31.2615 55.1431 27.4511 0.0877375 -0.000175047 -0.154906
182 1 1 30.6319 55.4305 27.3579 -0.0102339 0.0681896 -0.104694
183 1 1 28.1613 55.9299 26.0726 -0.0612341 0.020187 -0.00269877
184 1 1 27.3799 55.8953 25.5156 0.0399881 0.171229 0.0265658
185 1 3 29.7061 55.7225 26.9993 0.181961 -0.115205 -0.0745672
186 1 1 28.9716 55.9435 26.3301 0.0258152 -0.190227 -0.0142925
187 1 1 32.777 47.0703 28.4495 -0.138961 0.0559868 -0.100558
188 1 1 33.4177 47.881 28.2511 -0.152143 -0.0209755 -0.0766679
189 1 3 30.1676 45.632 28.3324 -0.0595234 0.0679806 -0.0981268
190 1 1 30.6569 45.5728 27.658 0.0195367 0.0571793 0.0544558
191 1 1 32.4123 46.584 27.96 0.105382 0.076674 0.113867
192 1 1 31.8767 46.1453 27.8234 0.0655938 -0.00179885 0.0760006
193 1 3 31.3554 45.7361 27.4665 0.137194 -0.11693 0.0612956
194 1 1 28.5423 45.7607 28.4689 0.0519041 -0.171988 -0.0774044
195 1 1 27.5673 45.9501 28.0432 0.104257 -0.0189298 -0.00118824
196 1 1 29.1732 45.5174 27.9381 -0.0343675 0.0645768 0.0943314
197 1 3 26.5543 46.4475 27.6974 -0.0964682 -0.0163508 0.0800474
198 1 1 25.7526 47.1275 27.7709 -0.0425057 -0.321209 0.0309494
199 1 1 24.5496 50.8195 27.2347 0.0281167 0.0452504 0.0266601
200 1 1 24.545 51.1798 26.6472 -0.0198111 -0.116279 0.0521765
201 1 3 24.668 52.0894 26.6427 0.0906471 -0.102184 0.0218407
202 1 1 24.8899 52.8993 26.3487 0.0682679 0.0875493 0.0189466
203 1 1 25.2188 53.7743 26.0507 -0.000826312 -0.0444398 -0.0296072
204 1 1 25.7935 54.7176 25.7743 0.00757033 0.0514651 -0.170029
205 1 3 26.5909 55.4502 25.3357 -0.0804293 0.215565 -0.154353
206 1 1 24.9124 48.4138 27.3273 -0.0390942 -0.108002 -0.115998
207 1 1 25.275 47.6047 27.0204 -0.0848697 0.0320133 0.0804921
208 1 1 24.5453 49.9131 26.9944 0.0118052 -0.0693802 -0.0305212
209 1 3 24.7355 49.0139 26.7052 0.00157558 0.045599 0.0343896
210 1 1 33.9427 48.6897 28.039 -0.045111 -0.0147628 -0.0900886
211 1 1 34.2514 49.4541 27.8028 -0.13182 -0.00945855 -0.109977
212 1 1 34.2086 51.383 27.7398 0.0941883 0.0539994 -0.0507527
213 1 3 34.3465 50.3749 27.442 -0.21708 -0.127396 -0.0694319
214 1 1 34.198 52.0185 27.1887 -0.0994784 -0.0483235 0.0932653
215 1 1 33.8055 52.9081 27.4632 0.00834009 0.150437 -0.174198
216 1 1 27.267 56.0454 24.7603 -0.172943 0.0760342 0.12536
217 1 3 28.1739 56.2557 25.145 -0.0113823 0.0839117 0.0961986
218 1 1 33.5251 53.4526 26.7965 -0.161374 -0.045903 -0.0464397
219 1 1 32.9224 54.1295 26.9938 -0.146919 -0.0303834 -0.147116
220 1 1 32.0364 54.7732 27.2196 0.0603681 -0.030154 0.000813353
221 1 3 31.3686 55.3674 26.7475 0.0584781 -0.115436 -0.00735884
222 1 1 30.5847 55.704 26.4747 -0.0818528 0.0543464 -0.0577743
223 1 1 28.9278 56.2188 25.626 -0.181944 0.0340914 -0.13049
224 1 1 29.7687 56.0666 25.9381 0.0184047 -0.0250949 -0.0999749
225 1 3 33.7217 48.1043 27.4343 -0.110311 0.0417556 -0.0913072
226 1 1 33.0483 47.1129 27.463 0.122912 0.0989467 -0.0861825
227 1 1 29.8294 45.3502 27.3068 -0.0100352 -0.128841 0.148366
228 1 1 30.4951 45.3865 26.8749 -0.141513 -0.12908 -0.051421
229 1 3 31.1567 45.5501 26.8508 0.112672 0.0553868 -0.0719239
230 1 1 32.4366 46.4608 27.1586 -0.0111606 -0.0995427 0.0662447
231 1 1 31.8355 45.9332 26.9638 0.0379218 -0.231498 0.119848
232 1 1 28.2376 45.5424 27.5001 -0.0149349 -0.0582547 -0.036779
233 1 3 27.4373 45.807 27.0692 -0.00916223 0.104354 -0.0213034
234 1 1 28.8997 45.3505 26.9711 0.129091 -0.14312 0.0293728
235 1 1 26.8495 46.201 26.5772 0.0362009 -0.0593039 0.14165
236 1 1 26.0177 46.8254 26.934 -0.206531 -0.0220429 -0.00478645
237 1 3 24.5092 50.533 26.3754 -0.117085 0.141263 -0.104226
238 1 1 24.4997 51.4085 25.8571 0.0804361 0.041625 -0.0178713
239 1 1 24.5936 52.3968 25.6391 0.0683798 0.127872 0.064466
240 1 1 24.8275 53.2226 25.3671 -0.0396254 0.0169928 0.0157286
241 1 3 25.1928 54.0549 25.1163 -0.118448 -0.195748 0.127759
242 1 1 25.7664 54.9379 24.8213 -0.0973558 -0.0589492 0.174382
243 1 1 26.4105 55.6658 24.3063 0.0450287 -0.147433 0.0781349
244 1 1 25.0514 48.1389 26.4202 -0.142888 0.0585988 -0.0535375
245 1 3 25.6356 47.2963 26.2521 0.0222695 0.0180215 -0.0105286
246 1 1 24.5616 49.6485 26.0912 -0.243498 0.0895131 -0.102736
247 1 1 24.8348 48.7506 25.856 0.0558098 0.100548 0.182579
248 1 1 34.1152 48.9102 27.1456 0.2516 0.0984008 0.280624
249 1 3 34.2599 49.5382 26.9805 -0.036768 -0.152563 -0.0551264
250 1 1 34.3154 51.0979 26.8513 -0.0493045 0.105446 -0.119195
251 1 1 34.2878 50.1813 26.506 -0.0893758 0.078546 0.0117464
252 1 1 34.2083 51.7975 26.1644 0.040608 -0.0141859 -0.0178402
253 1 3 33.9421 52.6906 26.5355 -0.0369386 -0.115068 0.0997165
254 1 1 27.092 56.1953 23.8531 0.204504 0.0334026 -0.0138857
255 1 1 27.9515 56.4017 24.2693 0.0733265 -0.087533 0.140406
256 1 1 28.8765 56.4969 24.6979 0.252914 0.00584564 -0.00636587
257 1 3 33.7115 53.2264 25.9755 -0.0922141 0.201166 0.00300216
258 1 1 33.1955 54.037 26.1621 0.0204851 -0.0228954 -0.0457098
259 1 1 32.6668 54.5616 26.367 -0.120097 -0.145415 0.170533
260 1 1 32.0764 55.1427 26.0748 0.0562888 0.100172 0.0161557
261 1 3 31.3782 55.5749 25.8153 0.0648187 -0.0156152 0.029227
262 1 1 30.5727 56.0334 25.4258 0.0656296 0.0885903 0.194012
263 1 1 29.7391 56.3258 25.0262 0.290064 0.0796199 -0.0553289
264 1 1 33.955 48.4004 26.6745 0.107828 0.144514 0.00377448
265 1 3 33.5304 47.7177 26.636 -0.01901 0.141613 0.0199522
266 1 1 32.9501 46.9439 26.4409 0.0931485 -0.230036 -0.0684677
267 1 1 29.6597 45.2807 26.27 -0.000792187 0.162386 -0.0562907
268 1 1 30.7074 45.4852 26.1702 0.0736803 0.136779 -0.056974
269 1 3 31.523 45.7884 26.1396 0.120055 -0.0798368 -0.171293
270 1 1 32.3202 46.2957 26.2786 0.0887066 -0.0103778 -0.083088
271 1 1 28.1554 45.4849 26.5758 -0.103948 0.0607549 -0.00790141
272 1 1 27.489 45.7858 26.2911 -0.069474 0.126198 0.131884
273 1 3 28.7819 45.4069 26.1506 -0.0120412 0.107511 0.0414866
274 1 1 27.1442 46.0803 25.8141 -0.128691 -0.0220423 0.069187
275 1 1 26.3316 46.6483 26.0144 -0.0753182 -0.0755138 0.0486772
276 1 1 24.4511 50.327 25.4518 0.0796029 -0.0404151 -0.090447
277 1 3 24.4063 50.8378 24.9442 -0.165542 -0.00124298 -0.100466
278 1 1 24.3865 51.7195 24.8801 -0.0984592 0.0124919 0.0377795
279 1 1 24.475 52.6085 24.6899 0.0895342 -0.0287313 0.039948
280 1 1 24.7408 53.5539 24.4547 0.082677 -0.136841 -0.0240719
281 1 3 25.1851 54.3632 24.3136 -0.0317407 -0.0475969 0.0467871
282 1 1 25.7334 55.1842 23.8604 -0.0204516 -0.00888831 -0.187022
283 1 1 26.3737 55.8945 23.3604 -0.0150936 0.0840221 -0.222287
284 1 1 25.3169 47.9571 25.5721 0.107079 -0.112855 0.0136149
285 1 3 25.863 47.2592 25.2547 0.227068 0.0198265 0.12888
286 1 1 24.5986 49.3657 25.2329 -0.0652161 -0.272099 -0.188422
287 1 1 25.0599 48.5718 24.9946 -0.103165 0.163445 -0.0665234
288 1 1 34.1247 49.1991 26.1666 0.0577216 -0.080079 0.0134211
289 1 3 34.2317 50.8133 26.0578 -0.0881159 0.111933 -0.0529563
290 1 1 34.2126 50.1202 25.8445 -0.000625656 0.0240657 -0.0285978
291 1 1 27.0748 56.4661 22.847 -0.0440427 -0.0698642 0.0977279
292 1 1 34.1906 51.4757 25.3178 0.103305 0.0553219 0.0165549
293 1 3 33.9875 52.4325 25.5373 0.178271 0.0194527 -0.0511533
294 1 1 27.8403 56.684 23.318 0.120514 0.101081 -0.113895
295 1 1 28.6922 56.6859 23.7192 0.0146634 0.0100936 -0.182604
296 1 1 29.5266 56.6326 24.0283 0.14581 -0.0686565 0.0208977
297 1 3 33.682 53.1966 25.0559 -0.0511098 0.0145583 -0.0198406
298 1 1 33.4066 53.7989 25.4697 0.0240856 -0.114354 0.00985875
299 1 1 32.7002 54.6211 25.4028 -0.16208 -0.101361 -0.0778676
300 1 1 32.0761 55.3662 25.1166 -0.122238 -0.19358 0.0199963
301 1 3 31.3572 55.8948 24.8901 -0.194331 0.163069 0.197165
302 1 1 30.4736 56.3551 24.5072 -0.00971141 0.0319314 -0.00232177
303 1 1 32.5909 46.7763 25.6644 -0.227872 0.0203794 0.168215
304 1 1 33.8201 48.3173 26.0499 -0.04476 -0.0510589 0.144109
305 1 3 33.2562 47.5409 25.7779 0.113259 -0.0537906 -0.0772528
306 1 1 29.085 45.4919 25.5502 -0.0686536 0.032611 -0.0316298
307 1 1 30.0859 45.4791 25.4708 0.082359 -0.0331018 -0.188126
308 1 1 30.9885 45.7935 25.4045 0.0675425 -0.114251 -0.0581479
309 1 3 31.8892 46.1713 25.4636 -0.0267028 0.0626764 -0.0965875
310 1 1 28.1377 45.6724 25.6017 -0.048168 -0.0153646 -0.0371444
311 1 1 27.4466 46.1186 25.056 -0.120147 0.0725343 0.127686
312 1 1 26.6824 46.5945 25.0678 -0.00453339 -0.0766145 -0.125739
313 1 3 24.5286 50.0792 24.5783 -0.0644802 0.109322 0.14387
314 1 1 24.362 50.9438 24.2195 0.066314 -0.0361636 -0.0404286
315 1 1 24.2974 51.9923 23.9831 0.0964059 0.106265 -0.0903101
316 1 1 24.3803 52.8607 23.7152 0.0222253 0.0260603 -0.0187906
317 1 3 24.711 53.7723 23.512 -0.0640271 0.0242002 -0.123385
318 1 1 25.138 54.5887 23.2889 0.0577042 0.0737964 0.00795349
319 1 1 25.7414 55.429 22.8772 -0.0557562 0.0258733 0.0535873
320 1 1 26.2806 56.1423 22.3841 -0.158697 -0.046289 0.0123553
321 1 3 25.5067 47.8913 24.6991 0.0588099 -0.141739 0.0832657
322 1 1 26.0386 47.3079 24.5363 -0.0149826 -0.075275 0.0920814
323 1 1 24.8214 49.133 24.3366 0.0181597 0.0273115 0.024475
324 1 1 25.2279 48.4243 24.2257 -0.00263424 -0.0455203 -0.14102
325 1 3 33.8485 48.8552 25.4153 -0.0520495 0.107633 -0.00810446
326 1 1 34.0444 49.523 25.2624 -0.101559 0.0575586 -0.0808441
327 1 1 34.1462 50.5051 25.1281 -0.162429 -0.00135857 -0.151001
328 1 1 34.1074 51.4269 24.4979 0.0794625 0.10257 0.032103
329 1 3 26.9681 56.7506 21.9492 0.066873 0.0259492 0.242085
330 1 1 27.8171 56.9077 22.3616 0.0736092 0.0496315 -0.0139588
331 1 1 33.9816 52.2645 24.5924 0.106613 -0.0112626 0.023239
332 1 1 28.6879 56.9619 22.6927 -0.0178196 0.0571578 -0.0302326
333 1 3 29.5644 56.8746 23.1228 0.157998 -0.0409183 -0.0512953
334 1 1 30.4159 56.6541 23.588 -0.153595 0.0714728 0.0392563
335 1 1 33.6816 53.0424 24.3536 -0.0922199 0.0536838 0.0131513
336 1 1 33.2262 54.026 24.4655 0.0397032 -0.0206449 -0.104727
337 1 3 32.5642 54.9025 24.3763 0.11198 -0.100019 -0.135081
338 1 1 31.938 55.5841 24.1433 -0.0549687 -0.013879 -0.0511339
339 1 1 31.1791 56.2008 23.9708 0.0354464 -0.0369453 0.00455545
340 1 1 28.8057 45.7436 24.9502 -0.137426 -0.0427531 0.118492
341 1 3 32.1815 46.7193 24.8256 -0.00966496 -0.0244171 -0.0774937
342 1 1 32.7991 47.348 24.9274 -0.0783744 0.0788692 0.0513892
343 1 1 33.4337 48.1284 25.0496 0.0262075 0.0500678 -0.0226625
344 1 1 29.5464 45.688 24.8037 0.0451762 -0.134246 -0.156109
345 1 3 30.4698 45.9099 24.6186 -0.180609 -0.201636 -0.162776
346 1 1 31.4037 46.235 24.7189 0.132591 0.175252 0.225515
347 1 1 31.6868 46.711 24.064 -0.147392 -0.145195 -0.0219803
348 1 1 28.008 46.021 24.6584 -0.0275277 -0.0776627 -0.144416
349 1 3 27.3391 46.3687 24.3012 0.0647789 0.10695 0.0785343
350 1 1 26.5769 46.9374 23.9985 -0.198768 -0.088614 -0.0595565
351 1 1 24.6916 49.67 23.7617 -0.0404726 0.0915362 0.228255
352 1 1 24.4609 50.3412 23.4914 0.144176 -0.112368 0.0871988
353 1 3 24.226 51.2986 23.3446 -0.0594467 0.113046 0.120505
354 1 1 24.2401 52.1319 23.0173 -0.226617 0.0590693 -0.00961079
355 1 1 24.3433 53.1255 22.7952 0.0784231 0.0526028 -0.12119
356 1 1 24.6595 53.9868 22.5822 0.0263424 -0.00400173 0.0832425
357 1 3 25.0194 54.9073 22.341 -0.0313654 0.0180225 0.081138
358 1 1 25.4946 55.722 21.8999 -0.0542469 -0.0646344 0.0120966
359 1 1 26.1397 56.4274 21.4581 0.0646755 0.118264 -0.0718937
360 1 1 25.7887 47.7713 23.745 -0.00722346 0.0215974 0.0654668
361 1 3 25.1091 48.8463 23.3972 0.0473972 -0.0736705 0.0412719
362 1 1 33.7929 48.9807 24.6814 0.0831482 0.0257831 -0.116501
363 1 1 33.949 49.7593 24.3565 -0.0304168 0.0614783 -0.0363442
364 1 1 34.0393 50.7345 24.1072 0.00783185 0.173948 -0.0635748
365 1 3 34.0357 51.6825 23.8203 -0.0889268 -0.0208577 0.132862
366 1 1 26.8485 57.0741 21.0162 -0.0654409 0.0638103 -0.152739
367 1 1 27.6796 57.207 21.3857 -0.0838616 -0.18632 -0.161667
368 1 1 28.6097 57.2234 21.7024 0.0348274 -0.179266 -0.0188701
369 1 3 33.8371 52.5953 23.6879 -0.0912125 0.0124823 0.0583112
370 1 1 29.4205 57.1219 22.1246 -0.0249093 -0.103943 0.0502252
371 1 1 30.2996 56.9005 22.6233 0.0776389 0.0594735 -0.174207
372 1 1 31.1178 56.406 22.9667 0.0349497 -0.067472 -0.00161645
373 1 3 33.4582 53.4648 23.6788 0.00413939 -0.139077 0.047756
374 1 1 32.9817 54.3045 23.5839 0.141575 -0.0697013 -0.10561
375 1 1 32.4555 55.072 23.4312 -0.0738036 0.0347974 -0.137491
376 1 1 31.7933 55.8243 23.146 0.0981737 -0.0512156 0.00948004
377 1 3 28.9346 45.9473 24.0934 -0.0314205 0.111283 0.0357676
378 1 1 32.3812 47.1664 24.0879 -0.0787247 -0.0562258 0.0390416
379 1 1 32.9391 47.7149 24.3042 0.119865 0.0280419 -0.0373774
380 1 1 33.3442 48.4596 23.931 -0.0604889 0.0451811 0.185517
381 1 3 29.8884 45.9802 23.8768 -0.0153273 -0.00644886 0.0318285
382 1 1 30.8625 46.2497 23.8909 -0.156446 0.192359 0.0456648
383 1 1 31.3505 46.7069 23.2436 -0.250957 0.0314273 -0.0470833
384 1 1 32.0672 47.0459 23.4385 -0.0330493 -0.0503634 -0.127301
385 1 3 28.0352 46.259 23.6824 -0.0487512 -0.0991121 0.0729772
386 1 1 27.0924 46.786 23.3682 -0.0473617 -0.115021 0.01576
387 1 1 26.3785 47.4308 23.0828 0.162881 -0.00608267 0.0855606
388 1 1 24.7222 49.6613 22.9789 0.0121939 -0.0406826 -0.0807884
389 1 3 24.4382 50.5206 22.5985 0.0801265 -0.0949397 0.166774
390 1 1 24.2466 51.5007 22.3855 -0.0252818 -0.063744 -0.161926
391 1 1 24.1679 52.5363 22.0784 0.00453569 -0.0890578 0.0174493
392 1 1 24.232 53.4923 21.8754 -0.126107 0.000287319 -0.0125193
393 1 3 24.501 54.4134 21.693 -0.130753 -0.131242 -0.190921
394 1 1 24.8704 55.2525 21.3142 0.171335 -0.0763084 0.105904
395 1 1 25.3503 56.0779 20.9052 0.17923 0.0077931 0.0284435
396 1 1 26.0849 56.7751 20.4431 -0.0896336 0.128129 -0.0138302
397 1 3 25.6666 48.1767 22.7302 0.00179417 -0.0721295 0.0887933
398 1 1 25.149 49.0351 22.3456 0.078954 -0.0709889 -0.0285113
399 1 1 33.5791 49.1193 23.6978 -0.00383035 -0.0952691 -0.0849755
400 1 1 33.8106 50.0644 23.4518 -0.00567285 -0.0792907 -0.0266088
401 1 3 34.0157 50.9518 23.254 -0.0672304 -0.0590019 -0.147388
402 1 1 26.7609 57.2924 20.0279 -0.00122436 -0.0396255 0.195777
403 1 1 33.9358 51.9572 22.9116 0.0477526 -0.0607788 -0.12052
404 1 1 27.6191 57.5028 20.4261 0.080846 0.0468968 -0.080646
405 1 3 28.5864 57.5022 20.7076 0.0997607 0.0223915 -0.0707801
406 1 1 29.4901 57.3228 21.1684 0.0626491 0.0707378 0.0117472
407 1 1 33.6754 52.8561 22.7941 0.0430487 -0.0453008 0.0181558
408 1 1 30.2525 57.1405 21.6137 -0.0299007 -0.0237692 -0.118248
409 1 3 31.0751 56.6822 22.0198 -0.111754 -0.144674 -0.110254
410 1 1 31.742 56.0821 22.2386 0.198346 -0.0489338 -0.12152
411 1 1 33.2914 53.7243 22.7313 -0.169145 0.168132 -0.00982256
412 1 1 32.8858 54.5819 22.6433 0.148213 -0.266793 0.0445313
413 1 3 32.3834 55.3638 22.3706 0.0642851 0.0496447 -0.00858174
414 1 1 29.4975 46.223 23.2674 -0.155051 -0.0660889 0.0740692
415 1 1 28.7747 46.3717 23.0428 -0.147412 0.075323 0.149842
416 1 1 32.7561 47.7715 23.3078 -0.0439472 0.127066 -0.0826437
417 1 3 33.1307 48.5776 22.872 -0.00721586 0.127512 -0.178761
418 1 1 30.3223 46.4434 23.1306 0.0682217 0.14924 0.117428
419 1 1 31.0543 46.7536 22.5541 0.128625 0.0192392 -0.0252481
420 1 1 31.9025 47.2359 22.5411 0.0178228 -0.0394038 0.0485464
421 1 3 27.8471 46.674 22.8004 0.066813 0.0903247 0.00964156
422 1 1 27.0541 47.1733 22.45 0.103021 -0.0969976 -0.0861632
423 1 1 26.3191 47.7732 22.1734 -0.0542967 -0.0970005 0.0813092
424 1 1 24.6891 49.8683 22.0519 -0.0186457 -0.124436 0.0314838
425 1 3 24.3509 50.8448 21.6497 0.0911597 0.0903285 0.0435517
426 1 1 24.1358 51.9047 21.4515 0.0269009 0.0639808 -0.0971841
427 1 1 24.0436 52.8847 21.1412 -0.0951731 0.117962 -0.00224688
428 1 1 24.1131 53.819 20.983 0.0796575 -0.0044249 -0.0506479
429 1 3 25.9393 56.9773 19.4751 -0.0659652 -0.0414668 0.0962177
430 1 1 24.3276 54.6018 20.7648 -0.152321 -0.0640587 0.0927489
431 1 1 24.6921 55.4894 20.3869 0.067411 -0.0775299 -0.0653059
432 1 1 25.3122 56.3564 19.9697 -0.115299 -0.0199024 0.050435
433 1 3 25.6601 48.4489 21.809 0.049744 0.0286616 -0.193371
434 1 1 25.0758 49.3026 21.3644 -0.0367841 -0.0422935 0.0236668
435 1 1 33.5123 49.4515 22.8352 0.0218654 -0.0201191 0.184133
436 1 1 33.821 50.4247 22.5688 -0.0692069 0.282691 -0.0653551
437 1 3 33.9093 51.3425 22.2651 -0.10423 0.126619 0.00273835
438 1 1 26.6474 57.5418 18.9903 0.13222 -0.137252 0.145454
439 1 1 27.5023 57.7262 19.4836 0.000474927 -0.0220407 0.0615297
440 1 1 33.8689 52.2096 22.0036 -0.0194935 -0.11308 -0.0470172
441 1 3 28.4761 57.7529 19.7977 0.13589 0.187424 0.0827404
442 1 1 29.3513 57.6051 20.1593 -0.0695049 -0.05566 -0.0345609
443 1 1 30.2061 57.4036 20.5316 0.157129 0.14773 -0.0924674
444 1 1 33.6302 53.1616 21.8867 0.141229 -0.268731 -0.0251974
445 1 3 31.0168 56.9754 20.9566 0.347672 0.0139554 -0.0450017
446 1 1 31.7078 56.4008 21.3091 0.0170122 -0.0960975 -0.101868
447 1 1 32.3866 55.6972 21.4526 -0.0201328 0.111206 -0.103073
448 1 1 33.3203 54.0221 21.8652 0.0556973 0.0961936 0.00287704
449 1 3 32.8956 54.8723 21.6538 0.0125198 -0.178787 0.102115
450 1 1 29.6092 46.5449 22.5423 -0.0480941 0.0330468 -0.139294
451 1 1 28.6886 46.7328 22.2831 0.271356 0.0677311 -0.112035
452 1 1 32.5612 48.0841 22.2644 -0.105219 -0.0698865 -0.0744581
453 1 3 33.0775 48.9394 22.1197 -0.136069 0.0621392 0.107135
454 1 1 30.3941 46.6804 22.2116 0.109834 -0.0319289 -0.222958
455 1 1 31.1617 47.0016 21.7919 -0.0202864 0.0131568 -0.0291236
456 1 1 31.8984 47.5951 21.5836 0.0326013 -0.0824761 -0.157154
457 1 3 27.8954 46.9844 21.9367 -0.029865 0.037014 -0.0490028
458 1 1 27.0464 47.47 21.5858 -0.0848115 -0.0299917 0.136662
459 1 1 26.3528 48.0193 21.257 -0.0605484 -0.121526 0.0714626
460 1 1 24.6031 50.2085 21.1118 -0.105704 -0.0168855 0.0740861
461 1 3 24.28 51.175 20.7159 -0.0621953 0.153798 -0.0232855
462 1 1 24.0631 52.2181 20.5057 0.11111 -0.0594847 0.026121
463 1 1 24 53.113 20.1911 0.00339457 -0.11801 -0.211996
464 1 1 24.0223 54.0736 20.009 -0.00504192 -0.0455923 -0.0234058
465 1 3 25.9346 57.254 18.4436 -0.157146 0.133098 -0.0132723
466 1 1 25.2414 56.5954 18.9508 0.18185 0.0259909 -0.02574
467 1 1 24.2639 54.9302 19.7911 0.0594029 0.016712 0.0186508
468 1 1 24.6754 55.8196 19.4144 0.0851907 -0.182292 -0.0693915
469 1 3 25.5887 48.7401 20.8691 -0.147309 -0.109161 -0.0708981
470 1 1 25.0033 49.6395 20.5023 -0.0058701 -0.0791302 0.0566007
471 1 1 33.482 49.7827 21.8582 -0.0902773 0.0800639 -0.0671934
472 1 1 33.7974 50.6958 21.6245 -0.0846812 0.00583647 -0.151594
473 1 3 33.9137 51.5793 21.2032 0.0497693 -0.00942193 0.0448491
474 1 1 26.7195 57.8004 18.0561 0.231807 0.0412401 0.131802
475 1 1 27.5046 58.038 18.5091 0.126998 -0.0840747 -0.00514211
476 1 1 28.4228 58.0318 18.8934 -0.0122098 0.0293501 0.143268
477 1 3 33.8481 52.5529 21.067 -0.209693 0.131584 0.180626
478 1 1 29.3286 57.8389 19.2009 0.0320923 -0.00159758 -0.188084
479 1 1 30.1594 57.62 19.5363 -0.25274 -0.00788479 -0.00197394
480 1 1 30.95 57.1904 20.0245 0.102188 -0.0674641 0.0516345
481 1 3 33.6041 53.5103 20.9667 -0.25382 0.111041 -0.187644
482 1 1 31.759 56.6628 20.2967 -0.117961 0.240532 -0.138976