ITEM: TIMESTEP
100000000
ITEM: NUMBER OF ATOMS
94148
ITEM: BOX BOUNDS pp pp pp
0 62
0 62
0 62
ITEM: ATOMS id mol type x y z 
1 1 1 49.586 24.5215 18.4309 
2 1 1 50.1995 23.9199 18.1512 
3 1 1 49.9449 24.7832 17.6261 
4 1 1 50.5291 24.0605 17.3459 
5 1 1 49.254 25.289 17.9473 
6 1 1 50.2865 24.9074 16.7464 
7 1 1 50.8964 24.2179 16.4148 
8 1 1 49.6462 23.8289 18.9387 
9 1 1 50.2772 23.0692 18.7561 
10 1 1 50.6706 23.2234 17.8991 
11 1 1 51.1025 23.37 17.0957 
12 1 1 51.4599 23.3818 16.3816 
13 1 1 48.9136 24.4446 19.1655 
14 1 1 48.9034 25.0088 18.608 
15 1 1 48.4568 25.5335 18.3063 
16 1 1 49.6096 25.4704 17.0916 
17 1 1 48.7009 25.8533 17.3683 
18 1 1 51.2807 23.7946 15.7415 
19 1 1 50.8906 24.4088 15.3723 
20 1 1 50.4394 24.9929 15.8468 
21 1 1 49.7913 25.5562 16.1314 
22 1 1 48.381 24.19 19.6511 
23 1 1 49.168 23.5069 19.5771 
24 1 1 49.728 22.8609 19.3589 
25 1 1 50.2122 22.1958 19.0855 
26 1 1 50.78 22.2935 18.3938 
27 1 1 51.2513 22.4027 17.6288 
28 1 1 51.666 23.156 15.5035 
29 1 1 51.589 22.4462 16.8081 
30 1 1 51.8042 22.4569 15.9512 
31 1 1 48.0178 24.9638 19.1848 
32 1 1 47.6896 25.5237 18.5094 
33 1 1 47.8971 25.8783 17.722 
34 1 1 49.0234 26.0312 16.4469 
35 1 1 48.0609 26.0525 16.8187 
36 1 1 51.346 23.726 14.9113 
37 1 1 50.9234 24.3034 14.441 
38 1 1 51.6965 22.9826 14.5952 
39 1 1 50.4748 24.9721 14.784 
40 1 1 49.9169 25.482 15.1279 
41 1 1 49.098 26.0216 15.4271 
42 1 1 47.6115 24.2544 19.79 
43 1 1 47.8376 23.5209 20.1032 
44 1 1 48.4854 23.0997 20.0183 
45 1 1 49.0989 22.659 19.8352 
46 1 1 49.4818 21.9879 19.6753 
47 1 1 49.8903 21.2509 19.4484 
48 1 1 50.611 21.3872 18.9177 
49 1 1 51.2249 21.5032 18.1137 
50 1 1 51.6489 21.535 17.2595 
51 1 1 51.8968 22.373 15.1431 
52 1 1 51.8667 21.6566 16.4408 
53 1 1 51.9566 21.7907 15.6375 
54 1 1 47.0183 24.7432 19.5348 
55 1 1 46.5396 24.0074 19.9443 
56 1 1 47.0379 25.2185 18.8718 
57 1 1 47.0285 25.6076 18.0993 
58 1 1 46.2348 24.9669 19.0582 
59 1 1 47.1726 25.9062 17.1565 
60 1 1 48.2271 26.1606 15.9264 
61 1 1 47.246 26.0022 16.2492 
62 1 1 50.4668 24.7609 14.0032 
63 1 1 51.2728 23.5901 14.008 
64 1 1 50.783 24.1462 13.5464 
65 1 1 51.9375 22.0132 14.2947 
66 1 1 51.6232 22.7011 13.7846 
67 1 1 49.8896 25.2678 14.2165 
68 1 1 49.1841 25.7878 14.4995 
69 1 1 48.3024 26.1611 14.955 
70 1 1 47.0967 23.4564 20.1918 
71 1 1 47.6507 22.7682 20.3645 
72 1 1 48.441 21.9894 20.1567 
73 1 1 48.9584 21.2367 19.9828 
74 1 1 49.4176 20.5649 19.6654 
75 1 1 50.2231 20.5071 19.0145 
76 1 1 50.9945 20.606 18.4013 
77 1 1 51.5453 20.7128 17.5353 
78 1 1 51.8416 20.7721 16.6887 
79 1 1 52.0845 21.4895 14.9282 
80 1 1 51.9442 20.8808 15.7266 
81 1 1 51.9193 21.1499 14.0456 
82 1 1 46.1112 23.11 20.1906 
83 1 1 45.9047 24.4539 19.5384 
84 1 1 45.7554 23.756 19.8615 
85 1 1 46.1641 25.3343 18.3786 
86 1 1 46.2485 25.6442 17.5985 
87 1 1 45.4624 24.8227 18.7833 
88 1 1 46.3171 25.8423 16.6536 
89 1 1 47.366 26.062 15.3121 
90 1 1 46.3478 25.8919 15.7487 
91 1 1 49.9724 24.7667 13.33 
92 1 1 51.0192 23.2994 13.2023 
93 1 1 50.3457 23.8187 12.8232 
94 1 1 51.694 21.781 13.4187 
95 1 1 51.2406 22.5009 12.9128 
96 1 1 49.1744 25.4034 13.5707 
97 1 1 48.4318 25.9029 14.0326 
98 1 1 47.4423 26.0461 14.4043 
99 1 1 46.7469 22.5028 20.4666 
100 1 1 47.3216 21.7714 20.5488 
101 1 1 47.9266 21.0694 20.3952 
102 1 1 48.4546 20.3413 20.1493 
103 1 1 49.7868 19.9289 19.196 
104 1 1 49.1695 19.7717 19.6265 
105 1 1 50.4406 19.5446 18.5548 
106 1 1 51.1707 19.8402 17.8179 
107 1 1 51.5538 19.9727 16.9872 
108 1 1 51.7373 20.0734 16.2602 
109 1 1 51.6808 20.903 13.1842 
110 1 1 51.9592 20.5607 14.7842 
111 1 1 51.7559 19.9032 15.5136 
112 1 1 51.7937 20.2118 13.8012 
113 1 1 45.2521 23.0937 19.8554 
114 1 1 45.6999 22.3979 20.2264 
115 1 1 44.9498 23.9615 19.3 
116 1 1 44.3884 23.1547 19.3402 
117 1 1 45.2674 25.175 18.0205 
118 1 1 45.3997 25.4995 17.1171 
119 1 1 44.5879 24.566 18.4275 
120 1 1 45.4632 25.6245 16.1012 
121 1 1 46.469 25.9871 14.8156 
122 1 1 45.5691 25.7298 15.2761 
123 1 1 49.0907 24.8693 12.7891 
124 1 1 49.6934 24.3197 12.6229 
125 1 1 50.5729 23.0625 12.4931 
126 1 1 49.8143 23.645 12.2421 
127 1 1 51.3739 21.5735 12.5718 
128 1 1 50.8665 22.1898 12.1361 
129 1 1 51.4751 20.678 12.3321 
130 1 1 46.4599 25.8638 13.9592 
131 1 1 48.4527 25.4077 13.0541 
132 1 1 47.3663 25.7645 13.3938 
133 1 1 46.2268 21.7271 20.531 
134 1 1 46.9031 20.9966 20.5899 
135 1 1 48.4618 19.5249 19.9333 
136 1 1 47.4004 20.3028 20.4517 
137 1 1 47.6969 19.5512 20.2385 
138 1 1 49.5853 19.1627 18.9631 
139 1 1 48.8477 19.0532 19.4723 
140 1 1 49.9779 18.6966 18.2809 
141 1 1 50.7216 18.9781 17.7282 
142 1 1 51.186 19.3394 17.1426 
143 1 1 51.4085 19.2606 16.2137 
144 1 1 51.7125 19.9944 12.9627 
145 1 1 51.7391 19.715 14.6446 
146 1 1 51.5791 19.2224 15.1999 
147 1 1 51.7053 19.3641 13.7009 
148 1 1 44.7352 22.4936 19.8229 
149 1 1 45.2083 21.6451 20.2679 
150 1 1 44.0184 23.8156 18.5818 
151 1 1 43.9837 22.2591 19.433 
152 1 1 43.5048 22.9866 18.793 
153 1 1 44.4853 25.035 17.4714 
154 1 1 44.6287 25.2397 16.4827 
155 1 1 43.9185 24.4532 17.8791 
156 1 1 44.7432 25.3812 15.5173 
157 1 1 45.6065 25.7832 14.3589 
158 1 1 44.9094 25.5138 14.7568 
159 1 1 48.48 24.7759 12.3727 
160 1 1 48.9316 24.1099 11.9967 
161 1 1 49.4084 23.2861 11.6015 
162 1 1 50.0495 22.7599 11.6673 
163 1 1 51.0635 21.3928 11.7768 
164 1 1 50.5452 21.889 11.442 
165 1 1 51.4087 19.933 11.9536 
166 1 1 51.2086 20.612 11.5632 
167 1 1 46.3871 25.6328 13.1932 
168 1 1 45.6566 25.6432 13.5609 
169 1 1 47.6924 25.1311 12.5377 
170 1 1 46.7423 25.3022 12.597 
171 1 1 45.7696 20.8738 20.5654 
172 1 1 46.2989 20.1093 20.4918 
173 1 1 48.1009 18.8585 19.8238 
174 1 1 46.7776 19.4722 20.3043 
175 1 1 47.3296 18.8826 20.0259 
176 1 1 48.3399 18.3441 19.2299 
177 1 1 49.1016 18.4783 18.8303 
178 1 1 49.4185 18.0027 18.0773 
179 1 1 50.2488 18.2926 17.5022 
180 1 1 50.9174 18.6989 16.8688 
181 1 1 50.9823 18.3628 16.1624 
182 1 1 51.263 18.5292 15.4482 
183 1 1 51.5619 19.1108 12.7321 
184 1 1 51.3502 19.1771 11.7706 
185 1 1 51.5368 18.7498 14.4114 
186 1 1 51.4766 18.5967 13.4 
187 1 1 44.4233 21.5704 19.9045 
188 1 1 44.8438 20.691 20.1559 
189 1 1 43.3477 23.7084 18.0673 
190 1 1 42.8267 23.0356 18.0629 
191 1 1 43.7367 21.4531 19.4547 
192 1 1 43.2457 21.9665 19.0499 
193 1 1 42.9011 22.3666 18.4826 
194 1 1 43.809 24.7435 16.8604 
195 1 1 43.8921 24.985 15.8499 
196 1 1 43.2099 24.1352 17.1568 
197 1 1 44.1441 25.1377 14.754 
198 1 1 44.875 25.4125 13.9584 
199 1 1 47.9443 24.4349 11.9124 
200 1 1 48.1398 23.8282 11.4898 
201 1 1 48.6995 23.3529 11.2415 
202 1 1 49.2897 22.7014 11.0382 
203 1 1 49.9393 21.9225 10.8435 
204 1 1 50.6143 21.0555 10.889 
205 1 1 51.0222 19.8752 11.0288 
206 1 1 45.7201 25.2864 12.7799 
207 1 1 44.9417 25.1538 13.0943 
208 1 1 47.1048 24.7017 12.0357 
209 1 1 46.0574 24.8561 12.1828 
210 1 1 45.356 19.9894 20.2575 
211 1 1 45.8907 19.2518 20.1777 
212 1 1 47.568 18.252 19.5626 
213 1 1 46.5066 18.4622 19.8828 
214 1 1 47.7301 17.715 18.9662 
215 1 1 48.5444 17.7876 18.5517 
216 1 1 51.0453 18.8704 11.1163 
217 1 1 51.1834 18.3861 11.9404 
218 1 1 48.8189 17.3124 17.756 
219 1 1 49.6086 17.5489 17.2532 
220 1 1 50.3494 17.8353 16.5494 
221 1 1 50.828 17.7944 15.6053 
222 1 1 51.1006 17.8872 14.8181 
223 1 1 51.1786 18.1234 12.798 
224 1 1 51.1954 17.9216 13.7507 
225 1 1 44.5546 19.7569 19.8623 
226 1 1 43.9068 20.5873 19.5871 
227 1 1 42.6741 23.4271 17.2362 
228 1 1 42.3771 22.7102 17.4715 
229 1 1 42.4175 22.1173 17.9399 
230 1 1 43.1459 21.0541 19.0299 
231 1 1 42.6912 21.5593 18.5663 
232 1 1 43.1846 24.3872 16.2313 
233 1 1 43.2303 24.5405 15.3253 
234 1 1 42.6404 23.7461 16.4013 
235 1 1 43.3247 24.5064 14.3469 
236 1 1 44.1946 24.9172 13.7343 
237 1 1 47.3041 23.9729 11.4974 
238 1 1 47.7242 23.2931 10.943 
239 1 1 48.466 22.6973 10.6414 
240 1 1 49.1471 22.006 10.446 
241 1 1 49.8059 21.216 10.2011 
242 1 1 50.3156 20.3361 10.1991 
243 1 1 50.6325 19.2993 10.3015 
244 1 1 45.1354 24.7219 12.3511 
245 1 1 44.2746 24.5913 12.9243 
246 1 1 46.3941 24.1961 11.6159 
247 1 1 45.4666 24.1918 11.7596 
248 1 1 45.1295 19.0764 19.9098 
249 1 1 45.5783 18.498 19.7657 
250 1 1 46.8022 17.7282 19.2647 
251 1 1 45.8379 17.8893 19.3612 
252 1 1 47.1004 17.1691 18.5238 
253 1 1 47.9538 17.1605 18.141 
254 1 1 50.6165 18.3092 10.4281 
255 1 1 50.7422 17.8821 11.3184 
256 1 1 50.7746 17.5192 12.2212 
257 1 1 48.2584 16.6968 17.4301 
258 1 1 49.0593 16.8815 17.0445 
259 1 1 49.728 17.0991 16.5874 
260 1 1 50.2099 16.9909 15.8331 
261 1 1 50.5222 16.9577 15.0186 
262 1 1 50.7862 17.1899 14.1306 
263 1 1 50.7784 17.3372 13.1761 
264 1 1 44.4171 19.0241 19.5379 
265 1 1 43.7868 19.5326 19.3631 
266 1 1 43.1366 20.1281 18.9615 
267 1 1 42.1589 22.8217 16.5407 
268 1 1 42.045 22.0173 17.1688 
269 1 1 42.2025 21.3425 17.7901 
270 1 1 42.5896 20.637 18.4553 
271 1 1 42.6949 23.8884 15.5664 
272 1 1 42.8089 24.0058 14.7792 
273 1 1 42.3345 23.2604 15.7491 
274 1 1 42.9345 23.8429 14.029 
275 1 1 43.4835 24.2545 13.4722 
276 1 1 46.6616 23.4429 10.9942 
277 1 1 46.8964 22.8669 10.515 
278 1 1 47.5378 22.4258 10.2033 
279 1 1 48.3 21.9365 10.0009 
280 1 1 48.992 21.3234 9.74351 
281 1 1 49.5539 20.5135 9.57612 
282 1 1 50.0392 19.6504 9.57866 
283 1 1 50.256 18.6102 9.564 
284 1 1 44.4998 24.11 12.1226 
285 1 1 43.7277 23.9395 12.6096 
286 1 1 45.8216 23.5796 11.1216 
287 1 1 44.8751 23.6426 11.3917 
288 1 1 44.8459 18.26 19.2549 
289 1 1 46.1667 17.2993 18.7998 
290 1 1 45.3802 17.5407 18.9066 
291 1 1 50.2683 17.6253 9.76034 
292 1 1 46.5204 16.6886 18.0594 
293 1 1 47.3516 16.6549 17.8319 
294 1 1 50.4079 17.3081 10.6486 
295 1 1 50.4185 16.9512 11.5382 
296 1 1 50.3888 16.6377 12.5743 
297 1 1 47.7702 16.1561 17.0171 
298 1 1 48.528 16.3588 16.7855 
299 1 1 49.3408 16.4077 16.1396 
300 1 1 49.8114 16.2853 15.2971 
301 1 1 50.1901 16.3624 14.4293 
302 1 1 50.2757 16.5081 13.5608 
303 1 1 42.6356 19.7693 18.224 
304 1 1 43.8941 18.6633 19.0382 
305 1 1 43.1888 19.2188 18.6438 
306 1 1 41.9782 22.5929 15.6042 
307 1 1 41.789 21.9283 16.276 
308 1 1 41.8754 21.1717 17.078 
309 1 1 42.1724 20.4676 17.6491 
310 1 1 42.4052 23.1998 14.7903 
311 1 1 42.5791 23.0921 13.8932 
312 1 1 42.9767 23.3466 13.1118 
313 1 1 46.0313 22.8334 10.4284 
314 1 1 46.6628 22.2821 10.0285 
315 1 1 47.3378 21.7623 9.64264 
316 1 1 48.0329 21.264 9.36657 
317 1 1 48.6957 20.5795 9.02445 
318 1 1 49.3142 19.8226 8.9078 
319 1 1 49.7364 18.842 8.87007 
320 1 1 49.9279 17.788 8.95801 
321 1 1 43.9952 23.5276 11.7369 
322 1 1 43.4056 23.2505 12.2501 
323 1 1 45.1086 23.1212 10.7789 
324 1 1 44.3211 23.1203 11.1276 
325 1 1 44.1235 18.0181 18.63 
326 1 1 44.6756 17.4883 18.5812 
327 1 1 45.5433 16.8694 18.2691 
328 1 1 45.9868 16.2466 17.658 
329 1 1 49.9741 16.7757 9.15856 
330 1 1 50.1619 16.4972 9.9901 
331 1 1 46.7931 16.0807 17.3369 
332 1 1 50.1833 16.3355 10.937 
333 1 1 50.1002 16.0012 11.9695 
334 1 1 50.0139 15.7735 12.9866 
335 1 1 47.2929 15.6091 16.6646 
336 1 1 48.1997 15.6616 16.2598 
337 1 1 48.958 15.6261 15.5405 
338 1 1 49.5049 15.5608 14.7825 
339 1 1 49.8063 15.6408 13.9131 
340 1 1 41.9632 22.363 14.9122 
341 1 1 42.1767 19.612 17.359 
342 1 1 42.6105 18.9425 17.8205 
343 1 1 43.3471 18.2818 18.1648 
344 1 1 41.7223 21.7951 15.4146 
345 1 1 41.634 20.9975 16.203 
346 1 1 41.8823 20.2605 16.7869 
347 1 1 41.8485 19.4172 16.5515 
348 1 1 42.1754 22.5007 14.1191 
349 1 1 42.4754 22.5223 13.2712 
350 1 1 42.8212 22.5771 12.2953 
351 1 1 45.1697 22.5187 10.2562 
352 1 1 45.7325 22.0571 9.84641 
353 1 1 46.3917 21.6329 9.35495 
354 1 1 47.0249 21.0944 8.98669 
355 1 1 47.7354 20.5515 8.65267 
356 1 1 48.4097 19.8793 8.36271 
357 1 1 48.9915 19.1637 8.23812 
358 1 1 49.412 18.1274 8.25051 
359 1 1 49.6573 17.0568 8.34088 
360 1 1 43.4693 22.6775 11.3847 
361 1 1 44.2079 22.4936 10.4792 
362 1 1 43.9024 17.4469 18.0533 
363 1 1 44.4569 16.7865 17.9201 
364 1 1 45.1494 16.1774 17.5519 
365 1 1 45.8623 15.6327 17.151 
366 1 1 49.8804 16.0087 8.6169 
367 1 1 49.9841 15.6564 9.41519 
368 1 1 49.9375 15.502 10.2946 
369 1 1 46.5186 15.3139 16.6587 
370 1 1 49.8823 15.3803 11.2173 
371 1 1 49.7245 15.1248 12.2329 
372 1 1 49.5458 15.0141 13.21 
373 1 1 47.2332 15.0449 16.1132 
374 1 1 47.9212 15.0174 15.5366 
375 1 1 48.6006 14.9196 14.9298 
376 1 1 49.1915 14.9006 14.1027 
377 1 1 41.6719 21.6122 14.5411 
378 1 1 42.2545 18.7837 16.9609 
379 1 1 42.7215 18.2455 17.361 
380 1 1 43.1233 17.4297 17.3259 
381 1 1 41.5043 20.856 15.3366 
382 1 1 41.6019 20.1157 15.9056 
383 1 1 41.5544 19.2259 15.6534 
384 1 1 41.876 18.6951 16.2334 
385 1 1 41.9545 21.7889 13.5454 
386 1 1 42.3427 21.9021 12.5159 
387 1 1 42.7504 21.9153 11.5591 
388 1 1 44.7885 21.9314 9.82678 
389 1 1 45.453 21.4935 9.25221 
390 1 1 46.0765 20.9811 8.72777 
391 1 1 46.7289 20.4652 8.25883 
392 1 1 47.4813 19.8474 7.93016 
393 1 1 48.1216 19.2055 7.66052 
394 1 1 48.647 18.4138 7.58984 
395 1 1 49.1544 17.3812 7.64423 
396 1 1 49.4983 16.213 7.76744 
397 1 1 43.2578 21.8462 10.6629 
398 1 1 43.8807 21.6641 9.93238 
399 1 1 43.6434 16.7529 17.317 
400 1 1 44.2693 16.0802 17.2047 
401 1 1 44.8997 15.5053 16.9575 
402 1 1 49.7527 15.2723 7.92379 
403 1 1 45.6184 14.9862 16.5352 
404 1 1 49.9131 14.9892 8.74295 
405 1 1 49.8123 14.7062 9.64968 
406 1 1 49.7264 14.5893 10.6316 
407 1 1 46.3608 14.6126 16.0943 
408 1 1 49.606 14.4125 11.638 
409 1 1 49.3717 14.2445 12.5972 
410 1 1 48.9367 14.1273 13.4713 
411 1 1 46.9595 14.4202 15.5034 
412 1 1 47.6285 14.3364 14.9296 
413 1 1 48.2915 14.2061 14.2644 
414 1 1 41.4465 20.6613 14.5502 
415 1 1 41.5189 20.886 13.7196 
416 1 1 42.3103 17.8738 16.5369 
417 1 1 42.7142 16.9055 16.6131 
418 1 1 41.3144 19.8909 14.9132 
419 1 1 41.3038 18.88 14.927 
420 1 1 41.6207 18.1185 15.5343 
421 1 1 41.7798 21.1336 12.8734 
422 1 1 42.1511 21.2278 11.9186 
423 1 1 42.5128 21.1981 10.9581 
424 1 1 44.5271 21.3075 9.18421 
425 1 1 45.1475 20.7902 8.56442 
426 1 1 45.8854 20.2408 8.03351 
427 1 1 46.5916 19.7282 7.6052 
428 1 1 47.2533 19.0806 7.24795 
429 1 1 49.3262 15.5359 7.15719 
430 1 1 47.8701 18.4029 7.09042 
431 1 1 48.4211 17.6102 7.05016 
432 1 1 48.943 16.5797 7.15334 
433 1 1 43.0966 21.1793 10.0701 
434 1 1 43.6395 20.99 9.25581 
435 1 1 43.307 16.1461 16.6804 
436 1 1 44.0226 15.3868 16.6415 
437 1 1 44.7011 14.7713 16.3018 
438 1 1 49.5104 14.4384 7.33768 
439 1 1 49.7131 14.1752 8.20257 
440 1 1 45.4635 14.2516 15.9343 
441 1 1 49.7199 13.9202 9.0762 
442 1 1 49.5727 13.8101 9.99473 
443 1 1 49.3882 13.6716 10.9915 
444 1 1 46.0772 13.8956 15.443 
445 1 1 49.1853 13.4851 11.9289 
446 1 1 48.7807 13.4595 12.8205 
447 1 1 48.117 13.4522 13.5718 
448 1 1 46.8211 13.7169 14.8879 
449 1 1 47.4785 13.6173 14.2082 
450 1 1 41.22 20.0591 13.9612 
451 1 1 41.3334 20.2915 13.0218 
452 1 1 42.002 17.1284 15.7907 
453 1 1 42.514 16.2253 15.9952 
454 1 1 41.129 19.1227 14.1595 
455 1 1 41.3056 18.1246 14.4769 
456 1 1 41.5131 17.3184 14.9719 
457 1 1 41.5525 20.4559 12.1984 
458 1 1 41.8562 20.5848 11.2307 
459 1 1 42.3275 20.4643 10.319 
460 1 1 44.292 20.5919 8.54716 
461 1 1 44.9561 20.1235 7.8609 
462 1 1 45.6977 19.5658 7.29366 
463 1 1 46.335 18.9958 6.94405 
464 1 1 46.9929 18.3635 6.65546 
465 1 1 49.1523 14.7577 6.56285 
466 1 1 48.7781 15.7308 6.47945 
467 1 1 47.7204 17.5899 6.49849 
468 1 1 48.3586 16.744 6.50652 
469 1 1 42.8931 20.4472 9.4281 
470 1 1 43.4538 20.1513 8.61692 
471 1 1 43.0654 15.4232 16.0224 
472 1 1 43.7433 14.6787 15.9422 
473 1 1 44.4944 14.1187 15.7055 
474 1 1 49.2985 13.7274 6.70673 
475 1 1 49.5417 13.3452 7.51317 
476 1 1 49.5968 13.0824 8.48011 
477 1 1 45.118 13.5339 15.2954 
478 1 1 49.5024 12.9185 9.42749 
479 1 1 49.2981 12.8295 10.3794 
480 1 1 49.03 12.6715 11.3311 
481 1 1 45.8954 13.1809 14.8005 
482 1 1 48.6616 12.7134 12.1894 
483 1 1 47.9546 12.6733 12.9494 
484 1 1 47.2682 12.7999 13.6205 
485 1 1 46.6135 13.0169 14.2202 
486 1 1 41.0538 19.3144 13.2791 
487 1 1 41.131 19.5427 12.3539 
488 1 1 41.8838 16.4052 15.0971 
489 1 1 42.387 15.539 15.264 
490 1 1 41.0192 18.4208 13.5476 
491 1 1 41.1724 17.4576 13.8894 
492 1 1 41.4336 16.5589 14.2218 
493 1 1 41.3743 19.7771 11.4291 
494 1 1 41.7033 19.7849 10.512 
495 1 1 42.1383 19.7253 9.59268 
496 1 1 48.929 14.0267 5.92392 
497 1 1 44.0653 19.8318 7.86325 
498 1 1 44.738 19.3948 7.12277 
499 1 1 45.4514 18.8808 6.64174 
500 1 1 46.1094 18.2353 6.28997 
501 1 1 46.9089 17.5804 6.1018 
502 1 1 48.6123 14.9781 5.82149 
503 1 1 48.1738 16.0194 5.87269 
504 1 1 47.6041 16.7971 5.9098 
505 1 1 42.649 19.6486 8.68191 
506 1 1 43.2137 19.4039 7.94159 
507 1 1 49.0963 12.9599 6.06777 
508 1 1 42.9639 14.7125 15.2937 
509 1 1 43.6006 14.0233 15.2421 
510 1 1 44.2598 13.3746 15.005 
511 1 1 49.3295 12.5325 6.87557 
512 1 1 49.4319 12.3472 7.75835 
513 1 1 49.4062 12.1719 8.73519 
514 1 1 45.004 12.8001 14.6761 
515 1 1 49.2485 12.0312 9.7098 
516 1 1 48.9356 12.0433 10.6599 
517 1 1 48.4521 11.9676 11.5472 
518 1 1 45.6955 12.5189 14.1388 
519 1 1 47.8122 11.9257 12.2722 
520 1 1 47.2174 12.0567 12.9497 
521 1 1 46.4655 12.2895 13.575 
522 1 1 40.9652 18.6732 12.5729 
523 1 1 41.0346 18.8609 11.6248 
524 1 1 41.8282 15.636 14.3534 
525 1 1 42.3355 14.8348 14.5547 
526 1 1 40.8921 17.675 12.9306 
527 1 1 40.9783 16.7926 13.2276 
528 1 1 41.2659 15.9567 13.4531 
529 1 1 41.1952 18.9664 10.7124 
530 1 1 41.516 19.0581 9.7968 
531 1 1 41.8598 18.9618 8.82148 
532 1 1 48.6443 13.2051 5.18448 
533 1 1 48.3597 14.2632 5.21242 
534 1 1 43.8741 19.1251 7.16929 
535 1 1 44.501 18.6613 6.41922 
536 1 1 45.259 18.1282 5.91355 
537 1 1 46.0837 17.5382 5.61225 
538 1 1 46.7641 16.8338 5.40558 
539 1 1 47.9427 15.1974 5.15615 
540 1 1 47.3932 16.0367 5.24272 
541 1 1 42.3963 18.9316 7.94178 
542 1 1 42.9891 18.7352 7.27256 
543 1 1 48.8574 12.2089 5.28023 
544 1 1 49.0865 11.9233 6.13407 
545 1 1 42.8525 14.0407 14.5388 
546 1 1 43.4111 13.2966 14.4192 
547 1 1 44.1919 12.614 14.2286 
548 1 1 49.2608 11.5675 7.09178 
549 1 1 49.2524 11.3492 8.04772 
550 1 1 49.1689 11.3214 9.05372 
551 1 1 44.8611 12.1341 13.8188 
552 1 1 48.9162 11.1829 9.95776 
553 1 1 48.4421 11.1899 10.8015 
554 1 1 47.7462 11.1945 11.5329 
555 1 1 45.6206 11.7728 13.3532 
556 1 1 47.0621 11.3305 12.2739 
557 1 1 46.3735 11.5974 12.8531 
558 1 1 40.8665 17.954 11.876 
559 1 1 40.8425 18.0966 10.9157 
560 1 1 41.6717 15.0469 13.6162 
561 1 1 42.1631 14.2975 13.729 
562 1 1 40.7766 17.0784 12.1945 
563 1 1 40.8251 16.1946 12.5027 
564 1 1 41.0805 15.2827 12.6625 
565 1 1 41.044 18.2391 9.96138 
566 1 1 41.3011 18.2484 8.99582 
567 1 1 41.6888 18.2297 8.0914 
568 1 1 48.4734 12.5311 4.55789 
569 1 1 48.1299 13.5419 4.50204 
570 1 1 47.7 14.5528 4.48515 
571 1 1 43.6414 18.4516 6.54825 
572 1 1 44.3687 17.9297 5.72933 
573 1 1 45.2388 17.4113 5.22323 
574 1 1 45.9732 16.8889 4.9157 
575 1 1 46.5877 16.1877 4.69721 
576 1 1 47.1664 15.3591 4.51273 
577 1 1 42.2465 18.1788 7.23428 
578 1 1 42.8184 18.1139 6.51651 
579 1 1 48.6439 11.5057 4.70986 
580 1 1 48.9902 11.1589 5.52897 
581 1 1 49.12 10.9755 6.3609 
582 1 1 42.7035 13.4524 13.7586 
583 1 1 43.332 12.6576 13.6479 
584 1 1 44.0006 11.9972 13.4366 
585 1 1 49.0614 10.6301 7.43026 
586 1 1 48.9816 10.5085 8.40533 
587 1 1 48.7609 10.4083 9.30416 
588 1 1 44.704 11.4491 13.0554 
589 1 1 48.3422 10.3706 10.2076 
590 1 1 47.6528 10.399 10.9099 
591 1 1 46.955 10.5852 11.5872 
592 1 1 45.4388 11.0297 12.5565 
593 1 1 46.2401 10.7786 12.1113 
594 1 1 40.6382 17.1611 11.1417 
595 1 1 40.6274 17.3619 10.214 
596 1 1 41.4046 14.4682 12.8457 
597 1 1 41.9379 13.6532 13.0557 
598 1 1 40.5904 16.3175 11.4881 
599 1 1 40.7228 15.4576 11.7799 
600 1 1 40.8367 14.5847 11.9751 
601 1 1 40.7874 17.481 9.25228 
602 1 1 41.1429 17.5088 8.27306 
603 1 1 41.5497 17.5056 7.36488 
604 1 1 48.211 11.7724 3.92579 
605 1 1 48.3422 10.8022 3.98288 
606 1 1 47.9639 11.2334 3.22682 
607 1 1 47.9054 12.8772 3.81498 
608 1 1 47.5172 13.9029 3.80108 
609 1 1 46.9294 14.7002 3.85725 
610 1 1 43.4891 17.8265 5.74732 
611 1 1 44.2039 17.3986 5.04362 
612 1 1 45.0163 16.8662 4.49939 
613 1 1 45.6954 16.2389 4.20692 
614 1 1 46.3293 15.5095 3.94027 
615 1 1 42.1449 17.5028 6.45544 
616 1 1 42.7435 17.4189 5.70328 
617 1 1 48.6655 10.4837 4.78028 
618 1 1 48.8713 10.1834 5.74027 
619 1 1 48.9053 10.0141 6.71949 
620 1 1 42.516 12.8647 13.0829 
621 1 1 43.0945 12.0338 12.9436 
622 1 1 43.7918 11.3087 12.698 
623 1 1 48.7885 9.69506 7.69878 
624 1 1 48.5845 9.60919 8.62203 
625 1 1 48.2579 9.57351 9.57478 
626 1 1 44.4967 10.7699 12.3672 
627 1 1 47.6027 9.60646 10.3179 
628 1 1 46.844 9.78857 10.8964 
629 1 1 46.099 10.0799 11.4077 
630 1 1 45.3401 10.371 11.9186 
631 1 1 48.3782 9.69259 4.19904 
632 1 1 48.0706 10.066 3.20463 
633 1 1 40.4241 16.4511 10.3697 
634 1 1 40.4492 16.6382 9.42442 
635 1 1 41.1914 13.74 12.1807 
636 1 1 41.7387 12.9748 12.3285 
637 1 1 40.4136 15.6647 10.7336 
638 1 1 40.5219 14.7828 11.0412 
639 1 1 40.7007 13.9013 11.2998 
640 1 1 40.6623 16.7085 8.48803 
641 1 1 41.0407 16.7423 7.55645 
642 1 1 41.4506 16.7812 6.6505 
643 1 1 47.6751 12.2001 3.14408 
644 1 1 47.7709 10.7913 2.49068 
645 1 1 47.5268 11.6951 2.4359 
646 1 1 47.2251 13.1874 3.10146 
647 1 1 46.7671 14.0891 3.15409 
648 1 1 46.1353 14.8956 3.27193 
649 1 1 43.3137 17.0892 4.99347 
650 1 1 44.0534 16.7386 4.26873 
651 1 1 44.8192 16.1974 3.79978 
652 1 1 45.4754 15.5807 3.43671 
653 1 1 42.009 16.8027 5.72061 
654 1 1 42.5159 16.6445 4.88457 
655 1 1 48.6572 9.47418 5.03432 
656 1 1 48.7196 9.27076 6.06851 
657 1 1 48.6669 9.00356 7.00877 
658 1 1 42.3516 12.1752 12.3596 
659 1 1 42.9001 11.3566 12.2478 
660 1 1 43.5568 10.6396 11.9945 
661 1 1 48.4186 8.84573 7.9707 
662 1 1 48.0938 8.83769 8.88413 
663 1 1 47.4945 8.78673 9.6455 
664 1 1 44.3484 10.0813 11.6886 
665 1 1 46.808 8.98277 10.2624 
666 1 1 46.0304 9.28288 10.805 
667 1 1 45.2068 9.68082 11.2567 
668 1 1 48.3144 8.65791 4.44208 
669 1 1 48.0582 8.96208 3.52186 
670 1 1 47.7472 9.97569 2.44762 
671 1 1 47.5103 10.4157 1.85877 
672 1 1 47.7516 9.17931 2.67194 
673 1 1 40.3137 15.7093 9.6688 
674 1 1 40.3922 15.8831 8.71045 
675 1 1 41.0596 13.0462 11.4679 
676 1 1 41.6673 12.2194 11.6363 
677 1 1 40.3427 14.8055 10.0074 
678 1 1 40.4224 13.913 10.3542 
679 1 1 40.6274 13.079 10.5968 
680 1 1 40.5911 15.9943 7.71262 
681 1 1 40.9061 16.016 6.75993 
682 1 1 41.2896 16.0529 5.89129 
683 1 1 47.0427 12.5534 2.36162 
684 1 1 47.3392 11.1514 1.72281 
685 1 1 46.9701 11.9435 1.62174 
686 1 1 46.6039 13.5142 2.43144 
687 1 1 45.9694 14.2079 2.4877 
688 1 1 45.2994 14.903 2.67679 
689 1 1 43.1263 16.4458 4.1761 
690 1 1 43.8569 16.0918 3.5564 
691 1 1 44.5876 15.5131 3.04942 
692 1 1 41.7813 16.0023 5.03795 
693 1 1 42.2822 15.8689 4.15484 
694 1 1 48.5039 8.55343 5.34814 
695 1 1 48.4766 8.26022 6.30127 
696 1 1 48.3103 8.17332 7.29938 
697 1 1 42.1509 11.4508 11.6426 
698 1 1 42.7357 10.5991 11.5127 
699 1 1 43.4939 9.88653 11.3145 
700 1 1 47.8826 7.97978 8.21949 
701 1 1 47.3386 7.96095 9.12235 
702 1 1 46.5989 8.16291 9.74216 
703 1 1 44.288 9.38542 10.9967 
704 1 1 45.8626 8.46888 10.1863 
705 1 1 45.1336 8.92061 10.5231 
706 1 1 48.1969 7.76457 4.76137 
707 1 1 48.0266 8.03618 3.80679 
708 1 1 47.751 8.18891 2.86434 
709 1 1 47.1424 10.3207 1.06733 
710 1 1 47.4686 9.46615 1.70179 
711 1 1 47.5801 8.68901 2.05177 
712 1 1 40.2193 14.9807 9.01884 
713 1 1 40.2473 15.1576 8.0329 
714 1 1 41.0534 12.2248 10.7766 
715 1 1 41.5678 11.4227 10.8687 
716 1 1 40.2182 14.0183 9.34799 
717 1 1 40.3447 13.1568 9.64187 
718 1 1 40.5801 12.2624 9.8361 
719 1 1 40.3857 15.232 7.05789 
720 1 1 40.7521 15.2412 6.15589 
721 1 1 41.066 15.2759 5.2472 
722 1 1 46.3804 12.8075 1.64516 
723 1 1 46.7604 11.315 0.952069 
724 1 1 46.2507 12.1089 0.947572 
725 1 1 45.7903 13.5909 1.76663 
726 1 1 45.079 14.2555 2.02725 
727 1 1 44.3791 14.8473 2.3436 
728 1 1 42.8891 15.7087 3.46699 
729 1 1 43.6043 15.3751 2.82425 
730 1 1 41.554 15.3312 4.29392 
731 1 1 42.0756 15.1939 3.46412 
732 1 1 48.3035 7.60944 5.65949 
733 1 1 48.1188 7.4353 6.67665 
734 1 1 47.8231 7.31623 7.60827 
735 1 1 42.0781 10.5823 10.8739 
736 1 1 42.6437 9.78583 10.7995 
737 1 1 43.4309 9.1594 10.6585 
738 1 1 47.1651 7.16602 8.53005 
739 1 1 46.4547 7.30786 9.08588 
740 1 1 45.7322 7.69143 9.56286 
741 1 1 44.2033 8.68099 10.3243 
742 1 1 44.932 8.09925 9.93737 
743 1 1 47.9205 7.02622 4.1541 
744 1 1 48.0415 6.84707 5.01815 
745 1 1 47.8021 7.18913 3.27201 
746 1 1 47.746 6.30963 3.40044 
747 1 1 46.6476 10.6652 0.408936 
748 1 1 47.635 7.3364 2.46627 
749 1 1 46.7811 9.84161 0.0797101 
750 1 1 47.5968 7.89759 1.91117 
751 1 1 47.2287 9.35324 0.732454 
752 1 1 47.4477 8.57661 1.25618 
753 1 1 40.0524 14.2273 8.31294 
754 1 1 40.0454 14.4791 7.36336 
755 1 1 40.9001 11.4943 10.0237 
756 1 1 41.4195 10.5966 10.1853 
757 1 1 40.1144 13.3162 8.59778 
758 1 1 40.23 12.4092 8.91565 
759 1 1 40.4402 11.5433 9.18708 
760 1 1 40.2417 14.4986 6.39271 
761 1 1 40.5325 14.5542 5.49483 
762 1 1 40.7987 14.611 4.58426 
763 1 1 45.6216 12.8915 1.04022 
764 1 1 46.1747 11.3758 0.378333 
765 1 1 45.4912 12.1404 0.347508 
766 1 1 44.9043 13.5133 1.27885 
767 1 1 44.1742 14.071 1.59734 
768 1 1 43.4267 14.6353 2.14789 
769 1 1 42.6568 14.9694 2.82592 
770 1 1 41.3553 14.6068 3.65378 
771 1 1 41.9492 14.4893 2.7609 
772 1 1 48.0163 6.73161 5.98729 
773 1 1 47.6943 6.60986 6.96921 
774 1 1 47.182 6.56786 7.83124 
775 1 1 41.9287 9.77791 10.1406 
776 1 1 42.6473 9.00772 10.1994 
777 1 1 43.4306 8.31168 9.9891 
778 1 1 46.3708 6.52001 8.49496 
779 1 1 45.6833 6.78111 8.91003 
780 1 1 44.8671 7.18697 9.3118 
781 1 1 44.1645 7.75397 9.70323 
782 1 1 46.5446 5.92359 7.8183 
783 1 1 47.7712 6.11614 4.29499 
784 1 1 47.7702 5.97127 5.3011 
785 1 1 47.6086 6.39581 2.3742 
786 1 1 47.6124 5.44496 3.56259 
787 1 1 47.5868 5.66366 2.84373 
788 1 1 47.5646 5.44453 2.03548 
789 1 1 45.9868 10.5683 61.6524 
790 1 1 46.3079 9.65524 61.2347 
791 1 1 47.5636 7.09232 1.63596 
792 1 1 46.9817 9.07904 61.7271 
793 1 1 47.4872 7.67024 0.960854 
794 1 1 47.3202 8.46656 0.368619 
795 1 1 39.9614 13.483 7.65354 
796 1 1 39.8752 13.5926 6.7433 
797 1 1 40.796 10.6546 9.36262 
798 1 1 41.2594 9.7572 9.43942 
799 1 1 39.9937 12.4802 7.94179 
800 1 1 40.1119 11.5902 8.24326 
801 1 1 40.3534 10.7988 8.56383 
802 1 1 40.0698 13.7174 5.80797 
803 1 1 40.292 13.8131 4.8514 
804 1 1 40.6209 13.9007 3.93634 
805 1 1 44.8321 12.7492 0.559502 
806 1 1 45.3902 11.3379 61.7384 
807 1 1 44.6508 11.9773 61.8861 
808 1 1 44.0823 13.3585 0.934034 
809 1 1 43.2314 13.8213 1.33958 
810 1 1 42.6183 14.2163 2.00958 
811 1 1 41.1944 13.9379 3.00842 
812 1 1 41.7688 13.8076 2.17161 
813 1 1 47.561 5.94316 6.17418 
814 1 1 47.1983 5.9105 7.06959 
815 1 1 41.9574 8.94039 9.56237 
816 1 1 42.5698 8.17693 9.56034 
817 1 1 43.2335 7.56205 9.33484 
818 1 1 45.5391 5.8702 8.12528 
819 1 1 44.7823 6.46715 8.63362 
820 1 1 43.9071 6.971 9.00759 
821 1 1 46.604 5.46953 7.16232 
822 1 1 45.9669 5.36412 7.53357 
823 1 1 47.3838 5.3511 5.57371 
824 1 1 47.4936 5.16485 4.56771 
825 1 1 47.4858 4.68699 3.78165 
826 1 1 47.5649 6.10931 1.38197 
827 1 1 47.5172 4.67168 2.82053 
828 1 1 47.5039 4.73031 1.91037 
829 1 1 47.528 5.2458 1.1553 
830 1 1 45.2752 10.6674 61.037 
831 1 1 45.6927 9.98291 60.8787 
832 1 1 45.962 9.32361 60.539 
833 1 1 46.61 8.80687 60.8893 
834 1 1 47.5161 6.77629 0.70419 
835 1 1 47.1168 8.26006 61.4383 
836 1 1 47.3738 7.49959 0.0446977 
837 1 1 39.7626 12.6897 7.03079 
838 1 1 39.6737 12.8355 6.10736 
839 1 1 40.6908 9.91465 8.65762 
840 1 1 41.2007 9.08869 8.84924 
841 1 1 39.8167 11.8002 7.24911 
842 1 1 39.9318 10.8783 7.56298 
843 1 1 40.1999 10.06 7.83003 
844 1 1 39.8781 12.9998 5.19753 
845 1 1 40.0709 13.1005 4.27047 
846 1 1 40.5087 13.2406 3.32168 
847 1 1 43.8804 12.6353 0.188825 
848 1 1 44.6697 11.2528 61.2639 
849 1 1 43.9057 11.8439 61.4945 
850 1 1 43.1271 13.1011 0.627114 
851 1 1 42.2888 13.4025 1.25279 
852 1 1 41.0099 13.2488 2.37655 
853 1 1 41.3974 13.1146 1.68264 
854 1 1 46.9316 5.16482 6.36105 
855 1 1 41.8063 8.28433 8.8941 
856 1 1 42.4398 7.44211 8.857 
857 1 1 45.2039 5.20054 7.43968 
858 1 1 43.0913 6.76066 8.59597 
859 1 1 44.5596 5.62838 7.92158 
860 1 1 43.7971 6.21151 8.27161 
861 1 1 45.9976 4.78646 6.87742 
862 1 1 45.1823 4.58622 6.79681 
863 1 1 46.9812 4.64401 5.38516 
864 1 1 47.1537 4.21687 4.38733 
865 1 1 47.2863 3.98945 3.57463 
866 1 1 47.2524 3.7444 2.81546 
867 1 1 47.4964 5.90429 0.376896 
868 1 1 47.3564 3.97505 2.08975 
869 1 1 47.3395 4.3314 1.20012 
870 1 1 47.2507 4.78457 0.039456 
871 1 1 44.6669 10.6223 60.577 
872 1 1 45.0816 9.9039 60.1813 
873 1 1 45.5342 9.04174 59.9282 
874 1 1 46.1689 8.53416 60.1773 
875 1 1 46.7331 7.96576 60.5046 
876 1 1 47.4224 6.63375 61.7218 
877 1 1 47.1796 7.27876 61.0786 
878 1 1 39.5609 11.8708 6.31692 
879 1 1 39.5603 12.0851 5.35531 
880 1 1 40.5817 9.19104 7.9805 
881 1 1 41.1141 8.28805 8.23962 
882 1 1 39.6197 10.997 6.70428 
883 1 1 39.7845 10.1079 6.89758 
884 1 1 40.0938 9.24941 7.12468 
885 1 1 39.6487 12.2464 4.51599 
886 1 1 39.9299 12.4562 3.54956 
887 1 1 40.3188 12.6077 2.63641 
888 1 1 42.9764 12.3174 61.7953 
889 1 1 43.2085 11.6281 61.1148 
890 1 1 43.8535 11.0423 60.712 
891 1 1 42.3482 12.675 0.466098 
892 1 1 41.7729 12.829 0.96475 
893 1 1 40.7215 12.5193 1.83829 
894 1 1 41.1346 12.4933 1.16345 
895 1 1 46.3851 4.38791 5.99246 
896 1 1 41.6756 7.46648 8.26952 
897 1 1 42.249 6.68379 8.10889 
898 1 1 44.3495 4.84659 7.17661 
899 1 1 42.9075 5.99026 7.88213 
900 1 1 43.6134 5.426 7.57851 
901 1 1 45.5689 4.10717 6.22111 
902 1 1 44.7577 4.04023 6.42104 
903 1 1 46.6443 3.90285 5.00483 
904 1 1 46.8422 3.44825 4.1387 
905 1 1 46.8958 3.0395 3.14829 
906 1 1 47.0223 3.19703 2.19548 
907 1 1 47.2211 5.64678 61.3278 
908 1 1 47.0485 3.44108 1.37022 
909 1 1 47.0729 3.83258 0.461369 
910 1 1 46.8856 4.08593 61.6762 
911 1 1 46.8705 4.76445 61.1218 
912 1 1 44.1338 10.319 60.0989 
913 1 1 44.3489 9.67478 59.7191 
914 1 1 44.86 9.07164 59.5306 
915 1 1 45.5094 8.34859 59.5195 
916 1 1 46.1445 7.70547 59.7892 
917 1 1 46.6634 7.03728 60.1436 