ITEM: TIMESTEP
100000000
ITEM: NUMBER OF ATOMS
94148
ITEM: BOX BOUNDS pp pp pp
0 62
0 62
0 62
ITEM: ATOMS id mol type x y z 
1 1 1 6.49373 31.4565 29.0946 
2 1 1 7.10781 30.9651 29.5305 
3 1 1 7.32626 31.8005 28.9347 
4 1 1 7.94333 31.3231 29.314 
5 1 1 6.58193 32.215 28.4809 
6 1 1 8.09699 32.0834 28.6606 
7 1 1 8.84093 31.5185 28.9969 
8 1 1 6.23868 30.6623 29.4774 
9 1 1 6.88245 30.032 29.9398 
10 1 1 7.76462 30.438 29.875 
11 1 1 8.59267 30.7323 29.6303 
12 1 1 9.4409 30.746 29.3385 
13 1 1 5.61793 31.1791 28.9619 
14 1 1 5.87325 31.8093 28.6099 
15 1 1 5.80955 32.3408 28.0677 
16 1 1 7.32981 32.5552 28.219 
17 1 1 6.54113 32.8353 27.7129 
18 1 1 9.69067 31.3302 28.8174 
19 1 1 9.57017 32.0022 28.3083 
20 1 1 8.82297 32.3192 28.2439 
21 1 1 8.13106 32.7702 27.9086 
22 1 1 4.93034 30.8109 28.7127 
23 1 1 5.42575 30.2543 29.3305 
24 1 1 6.09963 29.71 29.8469 
25 1 1 6.66466 29.1227 30.1344 
26 1 1 7.59536 29.3796 30.1951 
27 1 1 8.41374 29.7379 30.0244 
28 1 1 10.2298 30.6751 28.9729 
29 1 1 9.23235 29.8878 29.7346 
30 1 1 10.0013 29.9492 29.3577 
31 1 1 4.91724 31.6644 28.1947 
32 1 1 5.21936 32.386 27.5725 
33 1 1 5.79949 32.8547 27.277 
34 1 1 7.35547 33.1194 27.3341 
35 1 1 6.46928 33.2415 26.8245 
36 1 1 10.3681 31.3837 28.3999 
37 1 1 10.2589 32.0841 27.8338 
38 1 1 10.9376 30.7177 28.3525 
39 1 1 9.54935 32.6017 27.6295 
40 1 1 8.82244 32.9808 27.3968 
41 1 1 8.08635 33.323 26.858 
42 1 1 4.34688 30.8309 28.2069 
43 1 1 4.36993 30.0326 28.6556 
44 1 1 4.79717 29.6847 29.144 
45 1 1 5.36322 29.3927 29.5908 
46 1 1 5.85534 28.815 29.8719 
47 1 1 6.24173 28.1301 30.0562 
48 1 1 7.20661 28.413 30.3245 
49 1 1 8.15573 28.6302 30.2697 
50 1 1 9.00265 28.976 29.9651 
51 1 1 10.7584 29.9877 28.8542 
52 1 1 9.81194 29.0761 29.6956 
53 1 1 10.4522 29.3531 29.2356 
54 1 1 4.17849 31.3352 27.6219 
55 1 1 3.6459 30.5785 27.502 
56 1 1 4.5536 32.0369 27.3619 
57 1 1 5.06684 32.6957 26.843 
58 1 1 3.97886 31.6204 26.7778 
59 1 1 5.67326 33.0869 26.3043 
60 1 1 7.1664 33.4659 26.3103 
61 1 1 6.32532 33.4324 25.8843 
62 1 1 10.2187 32.5094 27.1643 
63 1 1 10.9561 31.416 27.7425 
64 1 1 10.8948 31.9816 27.1182 
65 1 1 11.3191 29.8264 28.2955 
66 1 1 11.4584 30.6348 27.7197 
67 1 1 9.66461 32.9685 26.7722 
68 1 1 8.86333 33.3182 26.3904 
69 1 1 8.02279 33.5266 25.8392 
70 1 1 3.84543 29.9593 28.1083 
71 1 1 4.20125 29.2585 28.5745 
72 1 1 4.86368 28.5949 29.2715 
73 1 1 5.39634 27.8974 29.6467 
74 1 1 6.01898 27.3152 29.8668 
75 1 1 6.92793 27.4677 30.1281 
76 1 1 7.87089 27.7229 30.2626 
77 1 1 8.83873 27.9897 30.1155 
78 1 1 9.66172 28.1787 29.7757 
79 1 1 11.0757 29.0666 28.7919 
80 1 1 10.4606 28.4243 29.2396 
81 1 1 11.6493 28.9725 28.1282 
82 1 1 3.29551 29.6425 27.3277 
83 1 1 3.46645 30.9515 26.6789 
84 1 1 3.24928 30.2365 26.8389 
85 1 1 4.38975 32.1568 26.4377 
86 1 1 4.86898 32.7098 25.9234 
87 1 1 3.7672 31.5971 26.0585 
88 1 1 5.54944 33.1389 25.3049 
89 1 1 7.14781 33.5875 25.319 
90 1 1 6.20775 33.3656 24.8143 
91 1 1 10.5087 32.6376 26.3455 
92 1 1 11.4385 31.3797 27.0402 
93 1 1 11.3135 31.9797 26.306 
94 1 1 11.8388 29.8166 27.5453 
95 1 1 11.9409 30.6194 26.9099 
96 1 1 9.74157 33.1748 25.7926 
97 1 1 8.85103 33.3523 25.4373 
98 1 1 7.92288 33.5519 24.8066 
99 1 1 3.60378 29.0637 27.9304 
100 1 1 4.03222 28.2863 28.4084 
101 1 1 4.57864 27.6525 28.9038 
102 1 1 5.15071 26.9911 29.3133 
103 1 1 6.69884 26.7003 29.9385 
104 1 1 5.92413 26.5693 29.6183 
105 1 1 7.58908 26.5894 29.9146 
106 1 1 8.57299 27.0958 29.8983 
107 1 1 9.43903 27.3456 29.6992 
108 1 1 10.1157 27.5856 29.3619 
109 1 1 12.1172 28.8846 27.3921 
110 1 1 11.1974 28.2145 28.5812 
111 1 1 10.6887 27.465 28.8852 
112 1 1 11.7735 28.1022 27.8368 
113 1 1 2.96423 29.5535 26.4109 
114 1 1 3.18149 28.9153 27.0841 
115 1 1 3.10787 30.4836 25.8784 
116 1 1 2.78894 29.6507 25.4585 
117 1 1 4.18043 32.0495 25.4427 
118 1 1 4.76395 32.5759 24.8702 
119 1 1 3.55471 31.3287 25.1322 
120 1 1 5.52994 32.9821 24.3228 
121 1 1 7.01462 33.4916 24.2919 
122 1 1 6.17643 33.1189 23.8353 
123 1 1 10.467 32.7276 25.3002 
124 1 1 11.051 32.3369 25.6087 
125 1 1 11.8167 31.3149 26.2134 
126 1 1 11.5976 31.7879 25.4633 
127 1 1 12.2526 29.6823 26.8037 
128 1 1 12.3375 30.4068 26.1666 
129 1 1 12.612 28.853 26.6353 
130 1 1 7.77121 33.3926 23.8445 
131 1 1 9.72764 33.111 24.9038 
132 1 1 8.70539 33.3141 24.2258 
133 1 1 3.42293 28.0957 27.5995 
134 1 1 3.91806 27.4773 28.0995 
135 1 1 5.39801 26.17 29.1644 
136 1 1 4.35291 26.8449 28.5349 
137 1 1 4.76749 26.1633 28.7081 
138 1 1 6.66403 25.9721 29.6012 
139 1 1 5.95656 25.6914 29.1923 
140 1 1 7.54349 25.7613 29.4055 
141 1 1 8.43612 26.1503 29.4943 
142 1 1 9.12621 26.593 29.4775 
143 1 1 10.034 26.7265 29.0747 
144 1 1 12.3366 28.0158 27.1215 
145 1 1 11.3185 27.3579 28.2795 
146 1 1 10.8068 26.7991 28.5367 
147 1 1 12.0442 27.2907 27.5781 
148 1 1 2.83557 28.8238 26.1197 
149 1 1 3.00706 28.0985 26.6839 
150 1 1 3.0419 30.4115 24.7845 
151 1 1 2.72414 28.7525 25.2512 
152 1 1 2.8286 29.5479 24.4522 
153 1 1 4.08333 31.8907 24.422 
154 1 1 4.78752 32.3993 23.8988 
155 1 1 3.54386 31.1078 24.1902 
156 1 1 5.4989 32.6764 23.3564 
157 1 1 6.93108 33.2154 23.3954 
158 1 1 6.195 32.889 23.0558 
159 1 1 10.4244 32.7108 24.5334 
160 1 1 11.1426 32.2357 24.6435 
161 1 1 11.8225 31.5441 24.6814 
162 1 1 12.2074 31.0158 25.2738 
163 1 1 12.6837 29.5482 26.0549 
164 1 1 12.7103 30.1573 25.4855 
165 1 1 12.9144 28.055 26.4011 
166 1 1 13.0147 28.7776 25.9658 
167 1 1 8.37551 33.2244 23.3337 
168 1 1 7.64183 33.1883 22.987 
169 1 1 9.82162 32.9993 23.9934 
170 1 1 9.18665 33.048 23.2627 
171 1 1 3.32674 27.2044 27.1362 
172 1 1 3.72245 26.5739 27.6474 
173 1 1 5.35277 25.5075 28.698 
174 1 1 4.21826 25.9798 27.9669 
175 1 1 4.78589 25.4694 28.1943 
176 1 1 5.96281 24.9706 28.5491 
177 1 1 6.77752 25.2863 29.0639 
178 1 1 7.58249 24.9332 28.7899 
179 1 1 8.39629 25.4042 29.0164 
180 1 1 9.17931 25.9368 29.0857 
181 1 1 9.84394 25.7561 28.6956 
182 1 1 10.4977 26.0699 28.4418 
183 1 1 12.7113 27.1658 26.8103 
184 1 1 13.2208 27.4041 26.1054 
185 1 1 11.4285 26.469 28.0026 
186 1 1 12.2106 26.5488 27.3791 
187 1 1 2.82493 27.9927 25.7991 
188 1 1 2.98684 27.1247 26.2388 
189 1 1 3.17755 30.366 23.8541 
190 1 1 2.98241 29.666 23.4192 
191 1 1 2.67435 28.0186 24.9663 
192 1 1 2.69662 28.5456 24.4039 
193 1 1 2.79547 28.9761 23.7365 
194 1 1 4.22408 31.7071 23.5065 
195 1 1 4.90003 32.0906 22.9103 
196 1 1 3.76503 30.9831 23.1951 
197 1 1 5.87457 32.4883 22.3372 
198 1 1 6.85369 32.8504 22.4892 
199 1 1 10.5523 32.5598 23.7531 
200 1 1 11.1222 32.0729 23.6368 
201 1 1 11.7523 31.6153 23.9083 
202 1 1 12.2863 30.998 24.2422 
203 1 1 12.7918 30.2547 24.6002 
204 1 1 13.1229 29.4209 25.1232 
205 1 1 13.4788 28.1605 25.4732 
206 1 1 8.43486 32.9365 22.5844 
207 1 1 7.6516 32.7099 22.1248 
208 1 1 9.95364 32.7223 23.0172 
209 1 1 9.19551 32.6217 22.3467 
210 1 1 3.33803 26.2985 26.8036 
211 1 1 3.83001 25.633 27.1634 
212 1 1 5.27951 24.8455 27.9907 
213 1 1 4.54716 25.0283 27.3903 
214 1 1 6.00242 24.4016 27.8221 
215 1 1 6.76386 24.5931 28.4294 
216 1 1 13.7586 27.2321 25.4979 
217 1 1 13.3411 26.5911 26.1984 
218 1 1 7.57826 24.2708 28.1093 
219 1 1 8.41199 24.5831 28.394 
220 1 1 9.31316 25.0685 28.5055 
221 1 1 10.3034 25.2579 28.1705 
222 1 1 11.1348 25.5219 27.8359 
223 1 1 12.7517 26.213 26.8347 
224 1 1 11.995 25.7297 27.3177 
225 1 1 3.13064 26.2311 25.834 
226 1 1 2.87096 27.1092 25.1637 
227 1 1 3.40178 30.3003 22.8791 
228 1 1 3.25237 29.5455 22.6479 
229 1 1 2.99129 28.8667 23.0133 
230 1 1 2.79717 27.5995 24.2833 
231 1 1 2.81066 28.2396 23.6114 
232 1 1 4.3519 31.3177 22.5454 
233 1 1 5.06708 31.6824 22.0439 
234 1 1 4.00157 30.6588 22.2139 
235 1 1 5.88649 31.7784 21.5542 
236 1 1 6.73063 32.3485 21.7926 
237 1 1 10.6866 32.2412 22.9688 
238 1 1 11.4848 31.6085 22.9086 
239 1 1 12.269 30.9981 23.2963 
240 1 1 12.8524 30.301 23.677 
241 1 1 13.3391 29.539 24.1202 
242 1 1 13.724 28.6506 24.5448 
243 1 1 14.0144 27.7147 24.7296 
244 1 1 8.42632 32.4147 21.8429 
245 1 1 7.51179 32.1386 21.4452 
246 1 1 10.0068 32.2018 22.2095 
247 1 1 9.22766 32.0187 21.6415 
248 1 1 3.60149 25.6041 26.3186 
249 1 1 4.11329 25.0693 26.5784 
250 1 1 5.29924 24.4807 27.2398 
251 1 1 4.68097 24.5005 26.5157 
252 1 1 6.10142 23.9232 27.0119 
253 1 1 6.79559 24.0078 27.6677 
254 1 1 14.1876 26.7117 24.8225 
255 1 1 13.8232 26.2364 25.5636 
256 1 1 13.29 25.7353 26.2086 
257 1 1 7.57809 23.6841 27.4198 
258 1 1 8.39189 23.9142 27.7599 
259 1 1 9.0819 24.2815 27.9758 
260 1 1 9.93152 24.4219 27.8133 
261 1 1 10.7468 24.6279 27.5868 
262 1 1 11.6907 24.8879 27.2232 
263 1 1 12.5679 25.2349 26.6989 
264 1 1 3.49251 25.5755 25.5187 
265 1 1 3.18914 26.0719 24.9175 
266 1 1 3.03852 26.683 24.2327 
267 1 1 3.76823 29.7553 21.9062 
268 1 1 3.37421 28.8616 22.2244 
269 1 1 3.10265 28.1159 22.7397 
270 1 1 3.03539 27.3469 23.4502 
271 1 1 4.63115 30.9432 21.7137 
272 1 1 5.32055 31.237 21.4249 
273 1 1 4.37631 30.2692 21.5325 
274 1 1 5.88222 31.0424 20.959 
275 1 1 6.67818 31.5905 21.1209 
276 1 1 10.7845 31.6939 22.1429 
277 1 1 11.4308 31.1998 21.9946 
278 1 1 12.0545 30.8031 22.3351 
279 1 1 12.7561 30.3093 22.7461 
280 1 1 13.3234 29.5975 23.1884 
281 1 1 13.8197 28.9267 23.6252 
282 1 1 14.1921 28.037 23.8939 
283 1 1 14.5374 27.0078 24.0644 
284 1 1 8.41432 31.7891 21.2283 
285 1 1 7.62461 31.4417 20.8203 
286 1 1 10.0893 31.5872 21.4759 
287 1 1 9.16494 31.5092 20.9433 
288 1 1 4.13657 24.868 25.7107 
289 1 1 5.38023 24.0037 26.444 
290 1 1 4.85206 24.1665 25.864 
291 1 1 14.6711 26.0454 24.1862 
292 1 1 6.16036 23.3819 26.2763 
293 1 1 6.87133 23.3992 26.8675 
294 1 1 14.2724 25.6957 24.8824 
295 1 1 13.7196 25.2268 25.5453 
296 1 1 13.0885 24.7764 26.0818 
297 1 1 7.66909 23.0986 26.7012 
298 1 1 8.33562 23.4204 27.1644 
299 1 1 9.3443 23.657 27.2933 
300 1 1 10.3797 23.8643 27.1384 
301 1 1 11.3095 24.0753 26.9853 
302 1 1 12.2606 24.3917 26.6141 
303 1 1 3.38003 26.5432 23.305 
304 1 1 3.67343 25.3 24.8064 
305 1 1 3.46652 25.8913 24.0274 
306 1 1 4.45705 29.558 21.2272 
307 1 1 3.98757 28.8877 21.5901 
308 1 1 3.58978 28.0357 22.1021 
309 1 1 3.49034 27.2256 22.6435 
310 1 1 5.12589 30.308 21.0354 
311 1 1 5.98034 30.3932 20.5606 
312 1 1 6.78281 30.8403 20.4408 
313 1 1 10.8433 31.0935 21.2675 
314 1 1 11.6885 30.6732 21.4329 
315 1 1 12.5361 30.1899 21.7094 
316 1 1 13.2183 29.7227 22.1611 
317 1 1 13.8505 29.0603 22.5616 
318 1 1 14.2977 28.2848 22.9853 
319 1 1 14.7187 27.3773 23.2164 
320 1 1 15.0971 26.4828 23.4069 
321 1 1 8.36893 31.2019 20.5769 
322 1 1 7.78817 30.8235 20.1994 
323 1 1 9.91717 31.0895 20.6842 
324 1 1 9.14033 30.9567 20.3642 
325 1 1 4.16399 24.6776 24.6983 
326 1 1 4.64567 24.1983 25.0132 
327 1 1 5.44125 23.5919 25.4758 
328 1 1 6.28833 23.0383 25.5157 
329 1 1 15.2387 25.4861 23.5239 
330 1 1 14.7618 25.0833 24.2063 
331 1 1 6.98721 22.8418 25.9481 
332 1 1 14.1566 24.6926 24.9029 
333 1 1 13.5339 24.1982 25.4917 
334 1 1 12.7838 23.8559 26.0091 
335 1 1 7.85495 22.6541 26.054 
336 1 1 8.72793 22.8693 26.5001 
337 1 1 9.85708 23.0803 26.5946 
338 1 1 10.8069 23.2106 26.5199 
339 1 1 11.8557 23.51 26.3651 
340 1 1 5.04134 29.3858 20.7799 
341 1 1 3.85898 26.4582 22.4714 
342 1 1 3.85141 25.8492 23.0408 
343 1 1 3.97401 25.0107 23.8921 
344 1 1 4.65724 28.7062 20.9383 
345 1 1 4.23419 28.0175 21.3737 
346 1 1 4.01834 27.1921 21.8821 
347 1 1 4.35938 26.3596 21.7535 
348 1 1 5.70528 29.6811 20.3795 
349 1 1 6.49516 29.9993 20.0889 
350 1 1 7.455 30.1645 19.8197 
351 1 1 10.613 30.7298 20.4116 
352 1 1 11.356 30.4931 20.6053 
353 1 1 12.2342 30.0882 20.865 
354 1 1 13.0727 29.6453 21.1627 
355 1 1 13.7584 29.0885 21.6332 
356 1 1 14.4083 28.4968 21.9498 
357 1 1 14.8584 27.7145 22.263 
358 1 1 15.3157 26.8179 22.5295 
359 1 1 15.6098 25.8418 22.7763 
360 1 1 8.5081 30.4282 19.7352 
361 1 1 9.78035 30.4335 19.9065 
362 1 1 4.50388 24.2015 24.1206 
363 1 1 5.13841 23.5392 24.4966 
364 1 1 5.97742 23.0248 24.7046 
365 1 1 6.74908 22.5527 25.0217 
366 1 1 15.8028 24.828 22.96 
367 1 1 15.2899 24.4836 23.5905 
368 1 1 14.6141 24.1161 24.2188 
369 1 1 7.63156 22.31 25.2793 
370 1 1 13.9796 23.6484 24.789 
371 1 1 13.2402 23.2572 25.3644 
372 1 1 12.3671 22.9559 25.7469 
373 1 1 8.5159 22.3071 25.7071 
374 1 1 9.42493 22.3781 25.9633 
375 1 1 10.3586 22.4779 26.0301 
376 1 1 11.4127 22.7084 25.9689 
377 1 1 5.37733 28.7175 20.3359 
378 1 1 4.27204 25.6316 22.2829 
379 1 1 4.22478 25.1125 22.8812 
380 1 1 4.64318 24.3667 23.1235 
381 1 1 4.94275 27.7716 20.7036 
382 1 1 4.56316 27.1305 21.2146 
383 1 1 4.86808 26.2275 21.0871 
384 1 1 4.66198 25.5959 21.5655 
385 1 1 6.26407 29.1565 19.8526 
386 1 1 7.10881 29.428 19.5431 
387 1 1 8.09996 29.6129 19.2346 
388 1 1 10.8211 30.1974 19.8084 
389 1 1 11.7343 29.9477 20.0485 
390 1 1 12.685 29.5481 20.263 
391 1 1 13.5371 29.146 20.5678 
392 1 1 14.1713 28.5856 20.9172 
393 1 1 14.8684 27.968 21.2006 
394 1 1 15.4082 27.252 21.557 
395 1 1 15.8146 26.2606 21.9373 
396 1 1 16.1792 25.2842 22.2096 
397 1 1 9.15637 29.7671 19.2033 
398 1 1 10.221 29.7846 19.1619 
399 1 1 5.06088 23.6472 23.4753 
400 1 1 5.70001 22.9503 23.8124 
401 1 1 6.42097 22.4959 24.0715 
402 1 1 16.3512 24.3162 22.3166 
403 1 1 7.31955 22.0906 24.4026 
404 1 1 15.7748 23.8438 22.963 
405 1 1 15.1174 23.4528 23.5634 
406 1 1 14.4503 23.0648 24.1733 
407 1 1 8.17777 21.848 24.8341 
408 1 1 13.7081 22.632 24.7831 
409 1 1 12.8162 22.3776 25.2026 
410 1 1 11.9279 22.0181 25.4257 
411 1 1 9.09096 21.7889 25.0784 
412 1 1 9.99599 21.7043 25.3773 
413 1 1 10.9652 21.8288 25.4729 
414 1 1 5.53662 27.7754 20.1927 
415 1 1 6.21169 28.1756 19.7391 
416 1 1 4.76408 24.7592 22.1187 
417 1 1 5.16152 23.8053 22.4657 
418 1 1 5.28428 26.8544 20.4277 
419 1 1 5.42997 25.9788 20.4875 
420 1 1 5.25588 25.1667 20.9911 
421 1 1 6.86536 28.5797 19.3375 
422 1 1 7.70405 28.7779 19.0173 
423 1 1 8.66493 29.0432 18.7756 
424 1 1 11.2966 29.5836 19.2584 
425 1 1 12.3123 29.3993 19.4218 
426 1 1 13.2378 28.9683 19.6371 
427 1 1 14.0197 28.5392 19.877 
428 1 1 14.69 27.966 20.2864 
429 1 1 16.7053 24.6933 21.5606 
430 1 1 15.3639 27.3999 20.5757 
431 1 1 15.8824 26.6152 20.9853 
432 1 1 16.3405 25.6865 21.38 
433 1 1 9.7532 29.2472 18.6553 
434 1 1 10.8171 29.1663 18.558 
435 1 1 5.58297 23.0415 22.8125 
436 1 1 6.27591 22.4934 23.1637 
437 1 1 7.0617 21.9618 23.5409 
438 1 1 16.8622 23.7048 21.7135 
439 1 1 16.3385 23.2606 22.4117 
440 1 1 7.93265 21.6024 23.8831 
441 1 1 15.6815 22.7249 23.0045 
442 1 1 14.9539 22.4559 23.5693 
443 1 1 14.2029 22.064 24.1224 
444 1 1 8.77567 21.3518 24.2738 
445 1 1 13.2555 21.7895 24.5435 
446 1 1 12.3883 21.4477 24.759 
447 1 1 11.4981 21.2021 24.785 
448 1 1 9.66743 21.134 24.5531 
449 1 1 10.5672 21.1221 24.8096 
450 1 1 5.95173 27.2682 19.7903 
451 1 1 6.75576 27.6205 19.2336 
452 1 1 5.44618 24.2217 21.4309 
453 1 1 5.70571 23.3884 21.8706 
454 1 1 5.89587 26.2941 19.8243 
455 1 1 5.90386 25.3858 20.1028 
456 1 1 5.83815 24.5117 20.4888 
457 1 1 7.45355 27.9377 18.737 
458 1 1 8.39891 28.2555 18.4246 
459 1 1 9.29687 28.5132 18.2098 
460 1 1 11.8669 29.0739 18.644 
461 1 1 12.8015 28.8299 18.7522 
462 1 1 13.7129 28.4178 18.9638 
463 1 1 14.5057 27.965 19.3099 
464 1 1 15.2191 27.3684 19.5287 
465 1 1 17.2634 24.196 20.9975 
466 1 1 16.9419 25.1844 20.7318 
467 1 1 15.8864 26.7826 20.0122 
468 1 1 16.4696 26.0661 20.4555 
469 1 1 10.3485 28.6014 17.9855 
470 1 1 11.3754 28.6024 17.959 
471 1 1 6.18407 22.5536 22.1309 
472 1 1 6.88211 22.0087 22.5709 
473 1 1 7.65419 21.4769 22.9269 
474 1 1 17.4339 23.2465 21.1497 
475 1 1 16.9167 22.6791 21.8497 
476 1 1 16.2213 22.2411 22.4783 
477 1 1 8.45909 21.0636 23.316 
478 1 1 15.4699 21.7955 22.9323 
479 1 1 14.668 21.5113 23.3938 
480 1 1 13.7936 21.1738 23.925 
481 1 1 9.3324 20.7375 23.7164 
482 1 1 12.9728 20.9382 24.2122 
483 1 1 12.0388 20.5748 24.1699 
484 1 1 11.0648 20.4934 24.1549 
485 1 1 10.2368 20.5695 24.0121 
486 1 1 6.52049 26.6973 19.2345 
487 1 1 7.26724 27.0006 18.7054 
488 1 1 5.98386 23.6445 20.8694 
489 1 1 6.28954 22.7336 21.2079 
490 1 1 6.40634 25.7042 19.3934 
491 1 1 6.38612 24.772 19.6459 
492 1 1 6.37313 23.8671 19.9201 
493 1 1 8.05281 27.3723 18.1626 
494 1 1 8.93885 27.6677 17.8128 
495 1 1 9.88741 27.9327 17.5566 
496 1 1 17.8459 23.5839 20.4022 
497 1 1 12.4093 28.5208 17.987 
498 1 1 13.3753 28.247 18.1001 
499 1 1 14.2505 27.8097 18.3529 
500 1 1 15.0482 27.3068 18.6134 
501 1 1 15.8088 26.8318 18.9731 
502 1 1 17.5004 24.5728 20.2063 
503 1 1 17.0247 25.4522 19.8121 
504 1 1 16.4875 26.2211 19.4764 
505 1 1 10.9071 28.0455 17.3154 
506 1 1 11.9316 28.064 17.2824 
507 1 1 17.982 22.5394 20.6854 
508 1 1 6.76828 22.043 21.5668 
509 1 1 7.44856 21.4724 21.9362 
510 1 1 8.20084 20.8691 22.4278 
511 1 1 17.4813 22.1012 21.3437 
512 1 1 16.8102 21.6337 21.9257 
513 1 1 16.1008 21.2675 22.4082 
514 1 1 9.00248 20.3959 22.7961 
515 1 1 15.2451 20.8578 22.8828 
516 1 1 14.4498 20.5934 23.2345 
517 1 1 13.5114 20.3322 23.6155 
518 1 1 9.83552 20.125 23.1485 
519 1 1 12.5672 19.9649 23.612 
520 1 1 11.6484 19.8673 23.5829 
521 1 1 10.6951 19.8495 23.4071 
522 1 1 7.08182 26.0825 18.7193 
523 1 1 7.83953 26.3765 18.0999 
524 1 1 6.57868 22.9769 20.1643 
525 1 1 6.87752 22.1362 20.6183 
526 1 1 6.94401 25.1288 18.8785 
527 1 1 6.9185 24.173 19.0291 
528 1 1 6.88151 23.2831 19.2852 
529 1 1 8.65677 26.767 17.5637 
530 1 1 9.48915 27.0848 17.2149 
531 1 1 10.4249 27.316 16.8766 
532 1 1 18.3347 22.9238 19.943 
533 1 1 18.0065 23.9314 19.608 
534 1 1 13.0169 27.9476 17.3918 
535 1 1 13.9079 27.5694 17.4611 
536 1 1 14.7606 27.1769 17.6926 
537 1 1 15.6868 26.6907 18.0344 
538 1 1 16.4382 26.2967 18.4633 
539 1 1 17.5931 24.919 19.2479 
540 1 1 17.0608 25.6779 18.8588 
541 1 1 11.451 27.4744 16.7198 
542 1 1 12.4506 27.5471 16.7009 
543 1 1 18.4891 21.9366 20.0958 
544 1 1 17.9663 21.4651 20.8035 
545 1 1 7.38426 21.418 20.939 
546 1 1 8.05599 20.795 21.4424 
547 1 1 8.7497 20.1876 21.8955 
548 1 1 17.3604 21.0241 21.4395 
549 1 1 16.6773 20.5914 21.9627 
550 1 1 15.8647 20.2544 22.3457 
551 1 1 9.51816 19.6913 22.2376 
552 1 1 15.0278 19.925 22.7348 
553 1 1 14.0751 19.7749 23.0306 
554 1 1 13.1369 19.3918 23.0994 
555 1 1 10.3397 19.4116 22.5588 
556 1 1 12.1946 19.2585 23.0445 
557 1 1 11.2243 19.2386 22.8991 
558 1 1 7.62105 25.4441 18.1273 
559 1 1 8.32743 25.8222 17.489 
560 1 1 7.03432 22.3785 19.5507 
561 1 1 7.44191 21.5992 19.9656 
562 1 1 7.44135 24.5038 18.2633 
563 1 1 7.37415 23.5555 18.4038 
564 1 1 7.40456 22.5671 18.6241 
565 1 1 9.1722 26.222 17.0043 
566 1 1 10.0719 26.4497 16.5857 
567 1 1 10.9088 26.6438 16.2994 
568 1 1 18.8181 22.3975 19.3069 
569 1 1 18.5092 23.2885 19.0597 
570 1 1 18.094 24.257 18.608 
571 1 1 13.4451 27.3083 16.6966 
572 1 1 14.4202 27.0012 16.7822 
573 1 1 15.3438 26.6999 17.1462 
574 1 1 16.2299 26.2424 17.4875 
575 1 1 16.9717 25.7303 17.8833 
576 1 1 17.6593 25.0125 18.2701 
577 1 1 11.9359 26.8591 16.0886 
578 1 1 12.8985 26.9512 16.0143 
579 1 1 19.0036 21.299 19.5539 
580 1 1 18.5978 20.8727 20.2843 
581 1 1 17.9624 20.4097 20.9336 
582 1 1 8.00299 20.8083 20.4486 
583 1 1 8.59463 20.1659 20.9659 
584 1 1 9.26035 19.5764 21.2894 
585 1 1 17.2819 19.9856 21.4799 
586 1 1 16.4618 19.5861 21.7736 
587 1 1 15.5699 19.3159 22.2168 
588 1 1 10.0415 19.03 21.563 
589 1 1 14.7076 19.049 22.4801 
590 1 1 13.7182 18.8575 22.5625 
591 1 1 12.7865 18.6439 22.5075 
592 1 1 10.915 18.7701 21.9998 
593 1 1 11.8243 18.611 22.3152 
594 1 1 8.0703 24.8455 17.5129 
595 1 1 8.79889 25.2094 16.8848 
596 1 1 7.59769 21.7453 18.9349 
597 1 1 7.98333 20.9047 19.4616 
598 1 1 7.96861 23.8259 17.5729 
599 1 1 7.90224 22.9353 17.8238 
600 1 1 8.00898 21.9077 18.0788 
601 1 1 9.71702 25.5512 16.384 
602 1 1 10.5685 25.8031 15.9864 
603 1 1 11.4714 26.1243 15.6787 
604 1 1 19.3736 21.6718 18.8433 
605 1 1 19.6871 20.6834 18.9547 
606 1 1 19.94 21.1836 18.1618 
607 1 1 19.1125 22.6819 18.4706 
608 1 1 18.6393 23.6272 18.0568 
609 1 1 18.1378 24.3757 17.6471 
610 1 1 13.9401 26.7738 16.0129 
611 1 1 15.0178 26.4778 16.1212 
612 1 1 15.9202 26.1745 16.5775 
613 1 1 16.7818 25.691 16.9155 
614 1 1 17.5643 25.0905 17.3425 
615 1 1 12.5333 26.2748 15.4177 
616 1 1 13.5062 26.2901 15.3675 
617 1 1 19.1884 20.2693 19.6607 
618 1 1 18.6279 19.8792 20.2742 
619 1 1 17.9212 19.3916 20.9292 
620 1 1 8.5672 20.1502 19.9933 
621 1 1 9.13761 19.5246 20.3608 
622 1 1 9.81204 18.8254 20.6823 
623 1 1 17.0997 19.0295 21.2932 
624 1 1 16.2048 18.6916 21.6212 
625 1 1 15.2981 18.4376 21.8892 
626 1 1 10.601 18.4195 21.0157 
627 1 1 14.3032 18.1723 22.0657 
628 1 1 13.4191 17.9734 22.0302 
629 1 1 12.4698 17.9876 21.8236 
630 1 1 11.5048 18.12 21.4893 
631 1 1 19.7027 19.7023 19.1258 
632 1 1 20.2928 20.1048 18.3207 
633 1 1 8.6128 24.2586 16.8817 
634 1 1 9.3699 24.6499 16.2912 
635 1 1 8.13571 21.0806 18.4951 
636 1 1 8.48063 20.2452 18.9864 
637 1 1 8.57406 23.1689 17.0014 
638 1 1 8.51532 22.2493 17.3116 
639 1 1 8.57707 21.3614 17.4878 
640 1 1 10.2083 24.8755 15.8401 
641 1 1 11.0687 25.2013 15.3889 
642 1 1 11.9448 25.5309 15.0955 
643 1 1 19.6248 22.1484 17.9687 
644 1 1 20.4253 20.7949 17.5455 
645 1 1 20.1106 21.7003 17.3277 
646 1 1 19.1933 23.2076 17.4937 
647 1 1 18.6462 23.8703 17.0242 
648 1 1 18.0885 24.5469 16.6996 
649 1 1 14.5722 26.189 15.4483 
650 1 1 15.6975 25.9307 15.6443 
651 1 1 16.556 25.6083 15.957 
652 1 1 17.3681 25.14 16.3608 
653 1 1 13.0286 25.723 14.8649 
654 1 1 14.1224 25.7527 14.8368 
655 1 1 19.1416 19.2028 19.6685 
656 1 1 18.4746 18.8796 20.2367 
657 1 1 17.7308 18.4263 20.7371 
658 1 1 9.04337 19.542 19.3229 
659 1 1 9.62617 18.917 19.78 
660 1 1 10.3307 18.2361 20.1132 
661 1 1 16.8385 18.1246 21.0394 
662 1 1 15.8399 17.8054 21.308 
663 1 1 14.9134 17.5457 21.4849 
664 1 1 11.2267 17.7596 20.5709 
665 1 1 13.9605 17.3796 21.4605 
666 1 1 12.99 17.3492 21.3291 
667 1 1 12.0698 17.5083 21.0274 
668 1 1 19.7272 18.6343 19.1753 
669 1 1 20.2689 19.0701 18.563 
670 1 1 20.788 20.0696 17.5865 
671 1 1 20.9445 20.485 16.9869 
672 1 1 20.7812 19.3587 17.8814 
673 1 1 9.14861 23.6187 16.2912 
674 1 1 9.8668 23.9716 15.7967 
675 1 1 8.69609 20.5371 17.8964 
676 1 1 9.06535 19.6395 18.3678 
677 1 1 9.12325 22.5617 16.4343 
678 1 1 8.98206 21.5757 16.7177 
679 1 1 9.15317 20.6676 16.9029 
680 1 1 10.7941 24.2752 15.2498 
681 1 1 11.6288 24.5888 14.8612 
682 1 1 12.5239 24.9415 14.5676 
683 1 1 19.7104 22.587 17.0007 
684 1 1 20.7172 21.1999 16.7605 
685 1 1 20.2877 21.9886 16.5022 
686 1 1 19.2986 23.2424 16.4851 
687 1 1 18.6574 23.8923 16.0436 
688 1 1 17.946 24.4563 15.7152 
689 1 1 15.1915 25.6421 14.8905 
690 1 1 16.2305 25.3732 15.0971 
691 1 1 17.1698 25.0336 15.3857 
692 1 1 13.5723 25.0966 14.3795 
693 1 1 14.6873 25.0751 14.2372 
694 1 1 19.0117 18.182 19.725 
695 1 1 18.2545 17.8633 20.169 
696 1 1 17.3768 17.5269 20.4882 
697 1 1 9.63239 18.9436 18.7092 
698 1 1 10.1952 18.2433 19.2756 
699 1 1 11.026 17.6322 19.6003 
700 1 1 16.4375 17.2047 20.7113 
701 1 1 15.4439 16.9519 20.8515 
702 1 1 14.5065 16.7695 20.8686 
703 1 1 11.7835 17.1546 20.0493 
704 1 1 13.5088 16.7804 20.8149 
705 1 1 12.5861 16.856 20.4748 
706 1 1 19.6062 17.5652 19.2429 
707 1 1 20.2472 17.9548 18.6007 
708 1 1 20.8311 18.3315 17.9925 
709 1 1 21.3276 20.7275 16.2132 
710 1 1 21.3229 19.694 17.0016 
711 1 1 21.2083 18.9323 17.3681 
712 1 1 9.76229 22.9679 15.709 
713 1 1 10.4874 23.378 15.2276 
714 1 1 9.24454 19.8479 17.3488 
715 1 1 9.64032 19.0775 17.732 
716 1 1 9.59153 21.9184 15.905 
717 1 1 9.59529 20.9818 16.125 
718 1 1 9.71907 20.1117 16.4087 
719 1 1 11.2531 23.6221 14.737 
720 1 1 12.1844 24.0563 14.2814 
721 1 1 13.0935 24.2909 13.9604 
722 1 1 19.8291 22.7287 15.9972 
723 1 1 20.8069 21.5645 15.8399 
724 1 1 20.4531 22.1799 15.4519 
725 1 1 19.1634 23.3638 15.4835 
726 1 1 18.4638 23.8777 15.0896 
727 1 1 17.5989 24.3938 14.8333 
728 1 1 15.7255 25.0245 14.3848 
729 1 1 16.729 24.7943 14.5203 
730 1 1 14.1285 24.4049 13.8246 
731 1 1 15.1982 24.4138 13.8259 
732 1 1 18.7554 17.2181 19.6534 
733 1 1 17.8802 16.9077 20.0064 
734 1 1 16.973 16.5725 20.1959 
735 1 1 10.1598 18.3071 18.2048 
736 1 1 10.8076 17.6673 18.6928 
737 1 1 11.5214 17.0576 19.0357 
738 1 1 15.9995 16.3282 20.2994 
739 1 1 14.9812 16.1435 20.1683 
740 1 1 14.0445 16.2355 20.1424 
741 1 1 12.316 16.5912 19.4763 
742 1 1 13.1344 16.3418 19.8776 
743 1 1 20.1489 16.9658 18.5524 
744 1 1 19.3306 16.6155 19.0924 
745 1 1 20.6691 17.2954 18.0126 
746 1 1 20.5424 16.2836 17.9697 
747 1 1 21.2871 21.0925 15.3968 
748 1 1 21.224 17.6341 17.4506 
749 1 1 21.833 20.4108 15.3385 
750 1 1 21.4548 18.26 17.0558 
751 1 1 21.8145 19.7462 16.0471 
752 1 1 21.6612 18.9713 16.6378 
753 1 1 10.3777 22.3606 15.231 
754 1 1 11.0459 22.729 14.6227 
755 1 1 9.84212 19.3622 16.7872 
756 1 1 10.208 18.4751 17.2017 
757 1 1 10.1901 21.3491 15.3596 
758 1 1 10.2213 20.43 15.5677 
759 1 1 10.3186 19.5122 15.8533 
760 1 1 11.7864 23.1112 14.0958 
761 1 1 12.6522 23.4381 13.6527 
762 1 1 13.6057 23.6381 13.4124 
763 1 1 19.8062 22.7166 14.9742 
764 1 1 20.986 21.6181 14.9326 
765 1 1 20.3781 22.2281 14.4347 
766 1 1 19.118 23.28 14.5503 
767 1 1 18.2345 23.784 14.1997 
768 1 1 17.3674 24.1213 13.9341 
769 1 1 16.2387 24.3086 13.8488 
770 1 1 14.7542 23.7877 13.333 
771 1 1 15.837 23.7806 13.3186 
772 1 1 18.5067 16.2976 19.461 
773 1 1 17.5625 16.0437 19.7086 
774 1 1 16.5349 15.7602 19.7922 
775 1 1 10.7551 17.7816 17.7211 
776 1 1 11.3748 17.0701 18.084 
777 1 1 12.0971 16.4905 18.4894 
778 1 1 15.5816 15.6249 19.7029 
779 1 1 14.6829 15.5486 19.4708 
780 1 1 13.6998 15.7741 19.242 
781 1 1 12.9344 16.0078 18.8963 
782 1 1 16.242 15.1271 19.2562 
783 1 1 19.8384 16.0604 18.4954 
784 1 1 18.9143 15.7148 18.8824 
785 1 1 21.218 16.6101 17.2858 
786 1 1 20.3662 15.4969 17.8624 
787 1 1 20.9336 15.7155 17.4787 
788 1 1 21.4443 15.6682 16.9149 
789 1 1 21.6268 20.9667 14.3696 
790 1 1 22.2242 20.1909 14.4034 
791 1 1 21.6926 17.422 16.7819 
792 1 1 22.2445 19.6354 15.2281 
793 1 1 21.9709 18.1191 16.3256 
794 1 1 22.1896 18.8807 15.8054 
795 1 1 10.8574 21.7771 14.58 
796 1 1 11.5164 22.182 13.9823 
797 1 1 10.4623 18.7336 16.2887 
798 1 1 10.8103 17.9173 16.6999 
799 1 1 10.7479 20.8068 14.7085 
800 1 1 10.7328 19.8853 15.0012 
801 1 1 10.8269 18.9977 15.2671 
802 1 1 12.2789 22.5063 13.4197 
803 1 1 13.1664 22.746 13.0619 
804 1 1 14.1606 23.0258 12.8626 
805 1 1 19.6289 22.7151 13.9328 
806 1 1 21.0057 21.6699 13.8538 
807 1 1 20.2761 22.1789 13.4482 
808 1 1 18.7974 23.2125 13.6564 
809 1 1 17.9056 23.4881 13.3047 
810 1 1 16.8448 23.692 13.2538 
811 1 1 15.2198 23.1506 12.7123 
812 1 1 16.2685 23.271 12.6779 
813 1 1 18.1155 15.5188 19.151 
814 1 1 17.1773 15.3133 19.291 
815 1 1 11.273 17.162 17.0979 
816 1 1 11.8662 16.4384 17.527 
817 1 1 12.6354 15.7792 17.9718 
818 1 1 15.3156 14.8703 18.9012 
819 1 1 14.2799 15.0893 18.658 
820 1 1 13.4653 15.3717 18.2554 
821 1 1 16.8383 14.7236 18.87 
822 1 1 16.1319 14.5104 18.6901 
823 1 1 18.577 15.0219 18.6366 
824 1 1 19.4537 15.0794 18.2674 
825 1 1 20.1205 14.7193 17.7481 
826 1 1 21.8691 16.4932 16.4968 
827 1 1 21.015 14.862 17.2616 
828 1 1 21.6824 14.9356 16.6531 
829 1 1 22.0695 15.5859 16.3147 
830 1 1 21.4613 21.1602 13.2857 
831 1 1 21.9634 20.6304 13.6299 
832 1 1 22.419 20.0679 13.4581 
833 1 1 22.6368 19.4827 14.2918 
834 1 1 22.2441 17.2462 16.1065 
835 1 1 22.6412 18.7484 14.9425 
836 1 1 22.4882 18.0192 15.5131 
837 1 1 11.3217 21.159 13.9396 
838 1 1 11.9792 21.5164 13.4112 
839 1 1 10.9947 18.143 15.6467 
840 1 1 11.3425 17.2658 16.0924 
841 1 1 11.2558 20.1765 14.1199 
842 1 1 11.2113 19.2961 14.3977 
843 1 1 11.3761 18.3573 14.6507 
844 1 1 12.8519 21.891 12.914 
845 1 1 13.8306 22.2137 12.5655 
846 1 1 14.6907 22.439 12.2994 
847 1 1 19.3762 22.5823 13.0051 
848 1 1 20.8187 21.586 12.9259 
849 1 1 20.0702 21.9888 12.5752 
850 1 1 18.4561 22.984 12.6373 
851 1 1 17.3622 23.0954 12.4119 
852 1 1 15.7023 22.6531 12.1458 
853 1 1 16.5387 22.7026 11.9838 
854 1 1 17.7029 14.6623 18.6696 
855 1 1 11.8546 16.5392 16.5441 
856 1 1 12.4494 15.8695 17.0692 
857 1 1 15.6686 14.2052 18.1908 
858 1 1 13.1581 15.2183 17.2665 
859 1 1 14.7957 14.4032 18.0646 
860 1 1 13.9491 14.7774 17.6429 
861 1 1 16.7678 14.0935 18.2797 
862 1 1 16.1856 13.7307 17.765 
863 1 1 18.5604 14.3495 18.1754 
864 1 1 19.4584 14.2048 17.7898 
865 1 1 20.2978 14.0698 17.4139 
866 1 1 20.9824 13.9079 17.0212 
867 1 1 22.4924 16.3651 15.7804 
868 1 1 21.5768 14.1913 16.614 
869 1 1 22.174 14.5968 16.042 
870 1 1 22.7878 15.2476 15.342 
871 1 1 21.2708 21.0375 12.5345 
872 1 1 21.9972 20.4323 12.6895 
873 1 1 22.6934 19.6581 12.8374 
874 1 1 22.9143 19.235 13.4526 
875 1 1 23.0354 18.5851 14.059 
876 1 1 22.8266 17.1174 15.2908 
877 1 1 22.9933 17.814 14.6651 
878 1 1 11.8677 20.5385 13.4319 
879 1 1 12.6517 21.0366 12.8204 
880 1 1 11.5956 17.4967 15.0162 
881 1 1 11.8555 16.6628 15.5088 
882 1 1 11.7726 19.526 13.4803 
883 1 1 11.7156 18.6424 13.7881 
884 1 1 11.9093 17.7648 14.1273 
885 1 1 13.4718 21.3605 12.3034 
886 1 1 14.3166 21.6352 11.9219 
887 1 1 15.1809 21.859 11.7482 
888 1 1 19.109 22.2495 12.1569 
889 1 1 19.7802 21.7229 11.8374 
890 1 1 20.6542 21.2887 11.9911 
891 1 1 18.0718 22.5334 11.9754 
892 1 1 17.2844 22.5314 11.7722 
893 1 1 15.9662 22.016 11.5276 
894 1 1 16.7549 22.1369 11.4207 
895 1 1 17.771 13.8881 17.9574 
896 1 1 12.3535 16.018 16.0118 
897 1 1 12.9045 15.286 16.3731 
898 1 1 15.374 13.7625 17.3847 
899 1 1 13.6806 14.6056 16.7015 
900 1 1 14.4814 14.0994 17.0812 
901 1 1 16.982 13.5024 17.5754 
902 1 1 16.288 13.2827 17.0976 
903 1 1 18.6898 13.6272 17.5904 
904 1 1 19.5159 13.4664 17.3005 
905 1 1 20.4013 13.2211 16.8549 
906 1 1 21.3145 13.4121 16.3974 
907 1 1 23.1313 16.1559 14.8839 
908 1 1 22.0309 13.6678 15.8789 
909 1 1 22.5792 14.1509 15.3084 
910 1 1 22.9989 14.6203 14.7502 
911 1 1 23.2043 15.3177 14.4318 
912 1 1 21.4701 20.6443 11.8367 
913 1 1 22.0657 20.127 11.7625 
914 1 1 22.5606 19.6416 12.056 
915 1 1 23.0342 18.9978 12.4314 
916 1 1 23.2848 18.4081 13.1023 
917 1 1 23.3494 17.7608 13.6995 