ITEM: TIMESTEP
100000000
ITEM: NUMBER OF ATOMS
37074
ITEM: BOX BOUNDS pp pp pp
0 62
0 62
0 62
ITEM: ATOMS id mol type x y z vx vy vz 
1 1 1 22.1961 22.8941 23.715 -0.064851 -0.0857685 0.106743 
2 1 1 21.415 23.0291 24.0472 -0.0139905 0.067622 0.0689813 
3 1 1 21.6849 22.5382 23.1396 0.0172277 0.1761 0.0281086 
4 1 1 20.8532 22.665 23.3721 0.00865177 0.0973799 0.157835 
5 1 1 22.5146 22.5073 22.9119 0.106568 -0.10062 -0.0155444 
6 1 1 21.0836 22.2039 22.5097 -0.150506 -0.25817 -0.0281168 
7 1 1 20.141 22.4873 22.7116 -0.131666 0.132953 -0.0687802 
8 1 1 22.2107 23.4397 24.4689 -0.0361181 -0.0264774 0.0587646 
9 1 1 21.2375 23.6119 24.7471 0.114972 0.080265 -0.0305869 
10 1 1 20.5418 23.1933 24.2346 0.0978759 -0.0700923 0.0701761 
11 1 1 19.9525 22.9779 23.562 -0.0717293 -0.0104597 0.0851157 
12 1 1 19.2859 22.9703 23.0481 0.0858527 -0.0914392 -0.0102168 
13 1 1 22.9873 23.268 23.9762 -0.203102 -0.0533173 0.0969625 
14 1 1 22.9795 22.8473 23.3738 -0.00122271 -0.0845201 -0.0043934 
15 1 1 23.3592 22.7943 22.7825 -0.300286 0.054168 -0.14337 
16 1 1 21.9587 22.1531 22.2015 -0.142139 5.08574e-05 0.201695 
17 1 1 22.8623 22.3532 22.0362 -0.0119792 -0.1216 -0.165832 
18 1 1 19.2789 22.6739 22.3382 -0.0954277 0.0423614 -0.128183 
19 1 1 19.795 22.2771 21.8249 -0.00645158 -0.0157981 -0.0197614 
20 1 1 20.5416 22.0302 21.8103 0.0138127 0.0440131 -0.0132158 
21 1 1 21.3992 21.9544 21.501 -0.141429 0.18677 0.172728 
22 1 1 23.5752 23.8337 24.2748 -0.0163179 -0.046766 0.170754 
23 1 1 22.7765 23.8641 24.7812 -0.109309 -0.0871312 -0.0314764 
24 1 1 21.8508 24.1161 25.1897 0.0728898 0.0765501 -0.0806151 
25 1 1 21.05 24.4005 25.338 -0.0723 -0.124555 -0.119287 
26 1 1 20.2851 23.9445 24.9239 0.0156569 0.0397406 0.0993001 
27 1 1 19.6511 23.6967 24.3495 -0.0348391 0.0772396 -0.157716 
28 1 1 18.5623 23.1218 22.4164 -0.204605 0.00448499 0.17139 
29 1 1 19.0745 23.5167 23.7959 -0.013517 0.0391226 0.0614799 
30 1 1 18.5638 23.5019 23.1085 -0.0921623 0.00598621 0.165742 
31 1 1 23.8082 23.4388 23.4527 0.19176 0.0235579 0.0644182 
32 1 1 23.9874 23.1633 22.5454 0.0396328 0.126807 -0.0209213 
33 1 1 23.5977 22.7241 21.9175 0.165604 0.222411 -0.066242 
34 1 1 22.3823 22.0638 21.2894 0.0763407 0.0898196 -0.038452 
35 1 1 23.2879 22.3491 21.2013 -0.039335 -0.0925335 -0.122054 
36 1 1 18.9095 22.7634 21.7229 0.0466215 0.0742164 0.028024 
37 1 1 19.2593 22.4372 21.015 -0.143929 0.0655316 0.0444035 
38 1 1 18.2437 23.3407 21.748 0.0611419 0.0723454 -0.0271284 
39 1 1 20.0156 22.0583 20.937 -0.0176163 0.012009 0.0750929 
40 1 1 20.7337 21.9469 20.7377 0.101419 -0.188349 -0.123242 
41 1 1 21.7034 22.0117 20.5445 0.274933 -0.0592633 0.00937391 
42 1 1 24.2825 24.1549 24.0197 -0.217258 0.0159591 -0.0336715 
43 1 1 23.9877 24.7575 24.6857 0.0351081 0.00878008 0.0149404 
44 1 1 23.2265 24.5694 25.0697 0.11351 0.0920698 -0.181741 
45 1 1 22.4853 24.509 25.3273 0.00631574 0.0878632 -0.0334279 
46 1 1 21.9432 24.85 25.6555 -0.14949 -0.0074338 -0.0100643 
47 1 1 21.2236 25.2453 25.8141 0.0300034 0.0435646 0.134822 
48 1 1 20.2786 24.8295 25.4291 -0.0870439 0.0584953 -0.11796 
49 1 1 19.4854 24.5834 24.9808 0.103696 0.000697724 -0.117226 
50 1 1 18.8499 24.2888 24.3734 0.0723897 0.0626267 -0.188176 
51 1 1 17.9895 23.7624 22.442 0.0870207 -0.0232773 0.0774962 
52 1 1 18.346 24.1499 23.6905 -0.156999 -0.0251784 0.0276513 
53 1 1 18.0236 24.0397 23.0944 -0.0776578 -0.155008 -0.144509 
54 1 1 24.6404 24.033 23.4267 -0.0113319 0.0240994 0.146874 
55 1 1 24.97 24.8643 23.7916 0.0640291 -0.0103166 0.194412 
56 1 1 24.5099 23.6134 22.7984 0.0311916 -0.00641479 0.266136 
57 1 1 24.431 23.2667 21.9577 0.112173 -0.188811 -0.14796 
58 1 1 25.1341 24.2168 22.525 -0.0515631 0.16126 0.267286 
59 1 1 24.11 22.7523 21.1221 0.0643915 -0.0281216 0.0874507 
60 1 1 22.7168 22.1254 20.4031 0.0971767 -0.0550444 -0.110672 
61 1 1 23.6612 22.5307 20.3941 -0.127001 -0.0543282 0.00462193 
62 1 1 19.5913 22.2983 20.3433 0.0830197 0.0654753 0.0402812 
63 1 1 18.5 22.9583 20.9867 0.0272316 0.0114354 0.0688526 
64 1 1 18.9043 22.6831 20.2752 0.195475 0.0897314 0.135669 
65 1 1 17.5787 23.9806 21.7544 -0.168813 0.16427 0.115286 
66 1 1 17.8106 23.5257 20.9989 0.0870615 -0.100663 -0.0564627 
67 1 1 20.1423 22.1443 20.0151 -0.299305 0.00529927 -0.112819 
68 1 1 21.12 22.1443 19.8277 0.0941066 0.00666136 0.0654151 
69 1 1 22.1294 22.1776 19.7583 0.0985961 -0.0682288 0.110978 
70 1 1 24.4918 24.9533 24.4802 0.13018 0.307535 0.187354 
71 1 1 23.8962 25.3145 25.0769 0.0605329 -0.0139237 0.071051 
72 1 1 22.8857 25.368 25.5883 0.121454 0.0871375 0.00416958 
73 1 1 22.071 25.7507 25.9242 -0.095281 -0.0223611 -0.0306388 
74 1 1 21.2343 26.079 26.0037 0.0103013 0.0981048 -0.0409603 
75 1 1 20.4292 25.7037 25.8442 -0.0390487 -0.0714526 -0.219492 
76 1 1 19.4987 25.3998 25.4848 -0.113766 0.0805443 0.00634447 
77 1 1 18.7201 25.1603 24.8199 0.0873463 0.00790284 0.139337 
78 1 1 18.1637 24.9406 24.1875 0.0267993 -0.112954 -0.128661 
79 1 1 17.5504 24.4685 22.6506 0.170595 0.0614029 0.0630886 
80 1 1 17.6593 24.9512 23.4858 -0.0166651 0.0954791 -0.00538279 
81 1 1 17.1198 24.7041 21.9376 0.0572333 0.129574 0.025445 
82 1 1 25.1445 25.6914 24.1176 0.0557065 0.0109459 -0.0199972 
83 1 1 25.3213 24.7952 22.9853 0.00883309 0.101098 0.0822162 
84 1 1 25.4168 25.4434 23.5097 -0.125775 -0.00576166 -0.128498 
85 1 1 25.0782 23.9159 22.0238 -0.0528339 0.0860549 -0.0735155 
86 1 1 24.8522 23.4403 21.2038 -0.030366 -0.03042 -0.214202 
87 1 1 25.5422 24.5941 22.0201 0.0323624 -0.03226 -0.0357948 
88 1 1 24.5645 23.1388 20.2856 0.271375 0.0451086 0.0839004 
89 1 1 23.1106 22.4586 19.4586 -0.0785136 0.124022 -0.0856533 
90 1 1 24.1409 23.0059 19.5577 0.0380986 -0.0153201 -0.0433194 
91 1 1 19.4695 22.5583 19.3902 0.0480278 -0.081674 0.12867 
92 1 1 18.1814 23.1738 20.2009 -0.205436 0.0487489 -0.0346076 
93 1 1 18.6652 22.9752 19.4295 0.0647566 0.0681078 0.063318 
94 1 1 17.2077 24.1801 21.0494 -0.0965805 -0.112389 0.129219 
95 1 1 17.5472 23.9069 20.2193 -0.0127126 -0.0904178 0.0271636 
96 1 1 20.473 22.3728 19.1168 0.260005 0.0391567 -0.0203389 
97 1 1 21.4786 22.4154 19.0389 -0.138185 0.106505 0.161827 
98 1 1 22.5246 22.5781 18.7951 -0.0799145 0.0320647 -0.0425478 
99 1 1 24.5215 25.8454 24.8599 0.0722958 -0.0896773 0.0387027 
100 1 1 23.7967 26.2332 25.397 -0.0248198 0.077995 -0.0201201 
101 1 1 22.8763 26.4364 25.8198 0.0170751 -0.0520015 0.0212633 
102 1 1 21.9726 26.8318 25.9921 -0.0538703 0.308969 0.0758735 
103 1 1 20.5524 26.5195 25.9732 0.012309 0.00540124 0.0124087 
104 1 1 20.9744 26.9593 25.9778 -0.0499016 0.115933 -0.0237667 
105 1 1 19.6023 26.3982 25.7809 0.104839 0.123482 -0.106765 
106 1 1 18.7023 25.9458 25.1923 -0.154382 -0.00436445 -0.158784 
107 1 1 18.1283 25.7754 24.5463 -0.0170828 0.0204078 -0.249183 
108 1 1 17.68 25.66 24.0308 0.0664424 0.0677803 -0.161128 
109 1 1 16.7391 24.9964 21.1271 0.14405 -0.025023 0.0571992 
110 1 1 17.1564 25.2159 22.6793 0.0530205 0.0593958 -0.0797016 
111 1 1 17.2655 25.8206 23.4668 0.0515117 -0.0609156 -0.0261666 
112 1 1 16.7331 25.5293 21.9664 -0.0857088 0.105642 -0.116147 
113 1 1 25.6507 26.1029 23.4563 -0.0289545 -0.136518 0.00948801 
114 1 1 25.1731 26.3851 24.2686 -0.161808 -0.0836448 0.00617255 
115 1 1 25.8931 25.5354 22.5217 0.114435 -0.0468465 -0.0411658 
116 1 1 26.0257 26.45 22.6638 -0.0113499 0.225884 0.0150885 
117 1 1 25.5224 24.2771 21.2448 -0.0522782 0.0193707 0.0738539 
118 1 1 25.3084 23.9451 20.3954 0.0633515 -0.0697405 -0.0880793 
119 1 1 26.0017 25.2111 21.436 -0.0867961 0.0542012 -0.0564581 
120 1 1 24.8195 23.6701 19.4517 -0.158883 -0.078254 0.0241932 
121 1 1 23.4997 22.9861 18.7445 0.0459634 -0.0656664 0.129789 
122 1 1 24.3382 23.5848 18.8778 0.076987 -0.0590158 0.00689497 
123 1 1 19.9053 22.794 18.5552 0.115589 0.00348756 0.0885747 
124 1 1 19.1682 22.9996 18.7065 0.0211466 0.064382 -0.204426 
125 1 1 18.0703 23.5712 19.4359 -0.176147 0.0505716 -0.0422028 
126 1 1 18.6213 23.4744 18.6415 -0.163686 0.0339816 0.170383 
127 1 1 16.9234 24.6452 20.2423 0.222253 0.132504 0.0234781 
128 1 1 17.2938 24.3201 19.4911 0.0595084 -0.070986 0.0229906 
129 1 1 16.464 25.2665 20.4398 -0.0793665 0.0198694 -0.12251 
130 1 1 22.938 23.1738 18.0708 -0.126781 -0.137213 -0.0824384 
131 1 1 20.7898 22.7563 18.3023 0.185509 0.0403066 0.085765 
132 1 1 22.0526 23.0237 18.0571 -0.0197308 -0.0171742 -0.053014 
133 1 1 24.5478 26.7727 24.9639 -0.00157724 0.0568619 -0.134027 
134 1 1 23.7296 27.0818 25.474 0.0271074 0.21168 0.125326 
135 1 1 21.4853 27.5686 25.9908 -0.137725 -0.0648347 -0.00800612 
136 1 1 22.8794 27.3231 25.7788 -0.132132 -0.0741669 -0.0107143 
137 1 1 22.2298 27.7805 25.8452 -0.0996297 -0.100799 0.111081 
138 1 1 20.1294 27.1879 25.9165 -0.0128213 0.00138338 0.00610231 
139 1 1 20.8151 27.7443 25.912 -0.070402 -0.0241468 -0.0233125 
140 1 1 19.2744 27.4452 25.6677 -0.0327952 -0.124923 -0.137194 
141 1 1 18.6459 26.8233 25.278 -0.034203 -0.069485 0.045569 
142 1 1 18.2133 26.4408 24.831 -0.096291 0.0542291 -0.034421 
143 1 1 17.5503 26.4723 24.046 -0.0189434 -0.0364446 0.0151718 
144 1 1 16.3067 25.8004 21.2435 -0.175405 -0.00834118 -0.173709 
145 1 1 16.8377 26.0307 22.7855 -0.111875 -0.0129986 0.0804539 
146 1 1 16.9306 26.5076 23.283 0.0429307 -0.112362 0.0302674 
147 1 1 16.3291 26.3382 21.9407 -0.0271219 0.0201371 -0.010446 
148 1 1 25.6573 26.8809 23.5406 -0.0868193 0.0538382 -0.0598066 
149 1 1 25.1347 27.4054 24.311 0.0228063 0.0247936 -0.0040976 
150 1 1 26.2886 26.1405 21.7277 -0.0518393 -0.0151527 -0.0520382 
151 1 1 26.0038 27.3764 22.9215 0.249813 0.111749 0.205779 
152 1 1 26.3607 27.1479 21.9113 0.019831 -0.0369145 0.0771211 
153 1 1 25.8287 24.9121 20.4619 0.038639 0.115467 0.139519 
154 1 1 25.45 24.4261 19.571 -0.0568043 -0.0758566 0.121924 
155 1 1 26.2191 25.7194 20.7748 0.00179302 0.0687798 0.0261684 
156 1 1 24.9313 24.2919 18.681 -0.0242842 -0.0876128 0.12263 
157 1 1 23.7963 23.6411 18.1146 0.0760314 -0.0144078 -0.0543085 
158 1 1 24.4623 24.0809 18.261 0.109026 0.055837 -0.0565117 
159 1 1 20.144 23.1321 17.9523 0.0107651 -0.00816067 0.0925904 
160 1 1 19.3269 23.4711 18.047 0.0122155 -0.0155808 -0.135052 
161 1 1 18.5059 24.0806 18.0423 0.0467474 0.0450894 -0.00584829 
162 1 1 17.8289 24.1625 18.6156 -0.102921 0.122011 0.122667 
163 1 1 16.629 24.9702 19.5662 0.15638 0.0164898 -0.0893948 
164 1 1 16.9816 24.7309 18.9926 -0.099679 0.103504 0.0710509 
165 1 1 16.0292 26.0503 20.2802 -0.115701 -0.0207833 -0.0652472 
166 1 1 16.2784 25.504 19.7315 0.022111 -0.00963886 -0.0269847 
167 1 1 22.5766 23.5489 17.5616 0.0628841 0.19404 0.128706 
168 1 1 23.2786 23.8338 17.5642 -0.0901359 -0.0479878 -0.107801 
169 1 1 20.9621 23.3459 17.6555 -0.0187594 -0.00946841 -0.181457 
170 1 1 21.784 23.7423 17.3035 0.00303894 0.044201 0.0311023 
171 1 1 24.4698 27.7952 24.9627 0.0389529 -0.0225784 -0.0357374 
172 1 1 23.6886 28.0535 25.4178 0.154005 -0.0878011 -0.1293 
173 1 1 21.4732 28.2102 25.8491 -0.158421 0.0285773 0.0743785 
174 1 1 22.9214 28.4057 25.5893 -0.289969 0.0618936 0.0586315 
175 1 1 22.1408 28.4864 25.7385 -0.063617 0.157573 -0.0362784 
176 1 1 20.7938 28.5738 25.7496 -0.165977 0.0413657 -0.107953 
177 1 1 19.9949 28.0656 25.7738 -0.0600812 -0.135732 -0.0186599 
178 1 1 19.2797 28.3385 25.3892 -0.126683 -0.0354428 -0.0152794 
179 1 1 18.5243 27.72 25.099 -0.0274253 -0.0376504 0.0607222 
180 1 1 17.9937 27.0973 24.607 -0.112462 0.0605272 0.0177467 
181 1 1 17.4641 27.426 24.0672 -0.0701817 0.0449908 -0.0873963 
182 1 1 17.0646 27.2441 23.5456 -0.0730952 0.029222 -0.179227 
183 1 1 15.8802 26.6346 21.065 0.0850885 -0.0173735 0.0585653 
184 1 1 15.6262 26.7256 20.2182 0.159294 0.0780992 -0.0804393 
185 1 1 16.5124 26.9899 22.6921 0.0193319 0.0772602 -0.0197019 
186 1 1 16.0241 27.1088 21.8171 0.0278535 -0.141957 -0.045569 
187 1 1 25.5897 27.8584 23.6707 0.0296255 -0.0499207 0.0214725 
188 1 1 25.0007 28.3121 24.3362 0.102486 -0.123016 0.100805 
189 1 1 26.4007 26.665 21.0283 -0.0507202 0.206086 0.163432 
190 1 1 26.4091 27.482 21.0453 0.00906053 0.190622 -0.00692118 
191 1 1 25.8291 28.16 23.063 0.10652 0.0542358 0.241912 
192 1 1 26.1183 28.0026 22.413 -0.0809927 0.170621 0.177456 
193 1 1 26.297 27.9675 21.5715 0.136275 0.0436619 -0.0962726 
194 1 1 25.9076 25.4488 19.7304 0.0627038 -0.0950212 -0.014031 
195 1 1 25.539 25.1536 18.8515 -0.0405118 -0.234283 -0.0748667 
196 1 1 26.2083 26.3153 20.0143 -0.191198 -0.0448897 -0.143666 
197 1 1 24.8468 24.9181 18.0089 -0.0674046 -0.228235 -0.178777 
198 1 1 24.0542 24.4131 17.6597 -0.000906574 -0.027859 0.110839 
199 1 1 20.1229 23.6579 17.4356 0.112322 -0.165626 0.0845548 
200 1 1 19.5355 24.0722 17.2904 0.169922 -0.0364131 -0.0127799 
201 1 1 18.8446 24.2876 17.4157 -0.0393594 -0.0244644 0.0603242 
202 1 1 18.0055 24.5698 17.7845 -0.0750746 -0.140527 0.0266936 
203 1 1 17.1888 24.9179 18.203 0.0463341 0.137483 0.0362839 
204 1 1 16.4884 25.4765 18.6908 -0.00889159 0.0240217 -0.0108578 
205 1 1 15.8183 26.206 19.3248 -0.0733891 0.111262 -0.0926606 
206 1 1 22.5695 24.169 17.1597 -0.121897 -0.175829 0.045125 
207 1 1 23.348 24.6659 17.1301 0.0457209 0.135413 0.123756 
208 1 1 20.9483 24.0598 17.0222 0.0677416 -0.00909484 -0.201622 
209 1 1 21.8356 24.4388 16.8264 0.0642116 -0.0430743 -0.0529959 
210 1 1 24.225 28.7348 24.9102 0.0370196 0.00561067 0.0880692 
211 1 1 23.5367 28.9839 25.1315 0.00202534 -0.0473034 0.0521802 
212 1 1 21.6882 28.9624 25.5706 0.081172 0.0191741 0.0937354 
213 1 1 22.5538 29.2936 25.2659 -0.0382119 0.0594422 -0.136142 
214 1 1 20.9293 29.4356 25.3975 -0.0964397 -0.0467083 0.0799387 
215 1 1 20.0891 28.9582 25.498 -0.023376 -0.00766186 0.0947365 
216 1 1 15.3157 27.0796 19.5994 0.126607 0.18918 -0.0254733 
217 1 1 15.4065 27.3815 20.4632 0.0757745 0.0134394 -0.0764271 
218 1 1 19.3857 29.2197 25.0197 -0.0032123 0.0615153 -0.13872 
219 1 1 18.6147 28.7232 24.9047 -0.114117 -0.0024393 0.103776 
220 1 1 17.8492 28.1631 24.5212 0.18271 -0.0204376 0.0480799 
221 1 1 17.1559 28.0792 23.7798 0.126083 0.149563 0.0688168 
222 1 1 16.6496 27.9848 23.0853 0.0585526 -0.0985218 -0.064583 
223 1 1 15.6554 27.5104 21.3827 -0.121593 0.161262 -0.155974 
224 1 1 16.1094 27.8675 22.2214 0.00963917 0.0168245 0.00262303 
225 1 1 24.6374 29.2059 24.2619 0.0227131 -0.146176 -0.110599 
226 1 1 25.3792 28.8527 23.4957 0.0600586 -0.0355126 0.00490844 
227 1 1 26.293 27.18 20.1041 0.0475764 0.0437568 0.031289 
228 1 1 26.3186 27.8957 20.4301 -0.092639 0.0465092 -0.0720223 
229 1 1 26.2168 28.3245 21.0245 -0.00547823 0.0614119 0.118979 
230 1 1 25.8681 28.8257 22.5013 0.127561 0.0461675 -0.0352229 
231 1 1 26.119 28.6564 21.7228 -0.0534307 0.198466 -0.0982303 
232 1 1 25.869 26.1667 19.0225 -0.00485744 -0.0691147 -0.0326013 
233 1 1 25.361 25.9622 18.2717 0.0153434 -0.0303354 0.00337867 
234 1 1 26.0071 26.8685 19.2243 0.0203346 -0.165591 0.0172148 
235 1 1 24.831 26.0017 17.5535 -0.173299 -0.013392 -0.117709 
236 1 1 24.1616 25.2147 17.2542 0.214529 0.146474 -0.00699009 
237 1 1 20.1495 24.2859 16.8988 -0.232397 0.136405 0.164974 
238 1 1 19.3547 24.8619 16.7821 -0.201055 -0.128671 0.180752 
239 1 1 18.274 24.9963 17.0962 -0.0175602 0.0114615 0.0421734 
240 1 1 17.4241 25.3142 17.4266 0.0215626 -0.126197 0.0717355 
241 1 1 16.719 25.7228 17.7642 0.0252322 -0.0698025 -0.0256258 
242 1 1 15.89 26.2496 18.2099 0.00984163 0.0795351 0.00110384 
243 1 1 15.331 26.978 18.64 -0.138157 0.0820467 0.112586 
244 1 1 22.6702 24.9517 16.7678 -0.121666 -0.0460458 -0.0121693 
245 1 1 23.4486 25.5368 16.7062 0.135751 0.0927434 0.0839608 
246 1 1 20.9533 24.8485 16.536 -0.0309657 -0.0964287 -0.184138 
247 1 1 21.8696 25.2932 16.352 -0.165936 -0.0817104 -0.0588545 
248 1 1 23.8307 29.5547 24.5563 -0.0210411 0.159517 0.0742833 
249 1 1 23.1166 29.7514 24.7587 -0.0599702 0.145197 0.105597 
250 1 1 21.7789 29.7639 25.0857 0.0508767 -0.0851583 0.077207 
251 1 1 22.6229 30.1281 24.597 -0.0212861 0.0392497 0.0519038 
252 1 1 20.8603 30.1985 24.8693 -0.081823 0.130588 -0.0480093 
253 1 1 20.0805 29.7571 25.0641 0.127434 0.0049643 -0.0285663 
254 1 1 14.857 27.833 19.0773 0.0553668 -0.0127182 -0.0193665 
255 1 1 15.028 27.969 19.9403 0.111056 0.200957 -0.0167643 
256 1 1 15.2775 28.2262 20.8607 -0.0688666 0.110945 -0.09559 
257 1 1 19.3625 30.1106 24.6563 -0.0510629 0.14299 0.0604765 
258 1 1 18.6472 29.5841 24.5611 0.0732779 0.0379525 -0.0382967 
259 1 1 18.0815 29.1197 24.4137 -0.0223702 -0.13453 0.00913116 
260 1 1 17.3471 29.028 23.9535 -0.0297955 0.0743806 0.148283 
261 1 1 16.7889 28.9678 23.3342 0.062891 0.0247052 -0.0161715 
262 1 1 16.1525 28.7746 22.55 -0.0155107 -0.00182026 0.079772 
263 1 1 15.7076 28.4752 21.7555 0.0634675 0.0131681 0.147422 
264 1 1 24.2849 29.8455 23.9911 -0.0235428 -0.103149 -0.101855 
265 1 1 24.8182 29.7599 23.4747 -0.0125397 -0.217515 -0.0626407 
266 1 1 25.3722 29.5936 22.7223 0.0408599 0.0341879 0.0905547 
267 1 1 25.9937 27.8323 19.4361 0.166051 0.00870446 -0.150527 
268 1 1 26.0311 28.6165 20.1548 -0.0774355 -0.0675534 0.0289026 
269 1 1 25.9961 29.019 20.9216 -0.136858 -0.143261 0.0310666 
270 1 1 25.7286 29.4302 21.7686 -0.0067867 0.0341503 -0.0335368 
271 1 1 25.6008 26.9225 18.3978 0.054947 0.122224 -0.0223398 
272 1 1 25.2008 26.6023 17.8462 -0.032339 -0.00598801 -0.14264 
273 1 1 25.7517 27.5556 18.6912 0.0493494 0.012847 -0.00653291 
274 1 1 24.7149 26.9057 17.4 0.265195 0.0346757 -0.0510849 
275 1 1 24.1614 26.198 16.9727 0.184475 0.0159495 -0.0478559 
276 1 1 20.1201 25.1365 16.3485 0.0330186 0.174284 -0.00695506 
277 1 1 19.4604 25.6611 16.1653 0.0838938 -0.0487044 -0.0531394 
278 1 1 18.6978 25.6621 16.373 -0.00805347 0.0777143 0.0863933 
279 1 1 17.8134 25.7752 16.6147 0.0915218 -0.0925892 -0.178178 
280 1 1 16.9227 26.0394 16.8721 0.0565146 -0.0564703 0.00519957 
281 1 1 16.1267 26.3431 17.316 -0.0815755 -0.0669776 -0.0572264 
282 1 1 15.3504 26.9041 17.7233 -0.0400632 0.118056 -0.202997 
283 1 1 14.8078 27.6096 18.1442 -0.0455601 -0.0773545 0.100889 
284 1 1 22.6406 25.841 16.3737 -0.129484 -0.217735 -0.00909583 
285 1 1 23.3358 26.4382 16.4592 0.0567435 -0.177159 -0.0617671 
286 1 1 21.0102 25.5869 16.0531 -0.114696 0.0949714 -0.00666173 
287 1 1 21.8405 26.0867 15.9765 -0.103872 0.141522 0.0100932 
288 1 1 23.4591 30.2838 24.1282 -0.0277598 -0.0629293 0.0329912 
289 1 1 21.8051 30.4221 24.5202 0.0469773 -0.109714 0.108676 
290 1 1 22.4685 30.6292 24.2303 0.0538223 -0.145091 0.00222986 
291 1 1 14.2783 28.4514 18.6748 -0.0479504 -0.0819508 -0.0677042 
292 1 1 20.9576 30.9696 24.3644 0.0634514 0.0906299 -0.0391685 
293 1 1 20.1047 30.6033 24.5711 -0.0987579 -0.0335481 -0.114848 
294 1 1 14.4919 28.6479 19.5749 -0.00971756 0.141265 0.0344343 
295 1 1 14.7716 28.8783 20.4966 -0.196312 0.115745 0.0827259 
296 1 1 15.261 29.0439 21.3579 0.0943956 0.00455813 0.152473 
297 1 1 19.3375 30.9543 24.285 0.124586 -0.0478014 0.23754 
298 1 1 18.7466 30.3623 24.3522 -0.0381373 -0.00159616 0.0978622 
299 1 1 17.932 29.9807 24.0255 0.156263 0.173891 0.0212497 
300 1 1 17.0495 29.868 23.4691 -0.0180969 0.124489 -0.0683923 
301 1 1 16.3361 29.7223 22.8715 0.222477 0.0292616 -0.0703409 
302 1 1 15.728 29.4077 22.1046 0.0799898 0.101738 0.0184133 
303 1 1 25.212 30.1558 22.0191 0.187454 -0.0952077 0.159408 
304 1 1 24.2036 30.4135 23.5029 0.109538 -0.0584476 0.144578 
305 1 1 24.7274 30.3233 22.7814 -0.00701102 0.0496212 -0.0171371 
306 1 1 25.5791 28.2127 18.6733 0.103214 -0.0556607 0.00455649 
307 1 1 25.7446 28.8107 19.3908 -0.113901 -0.0355882 0.0996686 
308 1 1 25.7167 29.4421 20.1956 -0.0609034 0.0221733 -0.0707523 
309 1 1 25.6399 29.8353 21.082 -0.00614743 0.0757344 0.0984069 
310 1 1 25.2045 27.5742 17.976 -0.0328299 0.0894259 0.237644 
311 1 1 24.4919 27.7553 17.3386 0.0580505 0.0284581 0.0678522 
312 1 1 23.9853 27.1706 16.8304 -0.115011 0.321257 -0.0564077 
313 1 1 20.1637 25.9646 15.7891 -0.000395699 -0.0132689 0.293036 
314 1 1 19.1941 26.2296 15.7437 0.052197 -0.0367318 -0.0803654 
315 1 1 18.2143 26.3171 15.8862 0.0210469 0.101354 0.124136 
316 1 1 17.2782 26.5334 16.0958 -0.141653 -0.05533 0.129948 
317 1 1 16.3351 26.7359 16.3607 0.0707231 -0.11944 0.0333819 
318 1 1 15.566 26.9813 16.7539 -0.106691 0.0398583 -0.022471 
319 1 1 14.8435 27.6179 17.162 0.133981 0.06482 -0.0236222 
320 1 1 14.1885 28.3548 17.7595 0.0486513 -0.118207 0.0817068 
321 1 1 22.5561 26.6239 15.9902 0.123683 -0.0570803 -0.0730539 
322 1 1 23.1722 27.1092 16.2152 -0.144069 -0.016915 0.101863 
323 1 1 21.0586 26.3308 15.7104 0.0439649 -0.0329321 0.0118641 
324 1 1 21.8133 26.7623 15.734 0.0201123 0.0119454 -0.179746 
325 1 1 23.5995 30.9345 23.397 0.0871485 0.0580059 0.0314275 
326 1 1 22.9528 31.008 23.6851 0.0365087 0.0606818 0.116944 
327 1 1 21.9684 31.2051 23.9061 -0.145675 -0.125709 0.0301472 
328 1 1 21.0215 31.6185 23.8824 -0.112113 0.0157468 -0.0122447 
329 1 1 13.7504 29.1131 18.2432 0.0655695 -0.000239857 0.183317 
330 1 1 13.9538 29.377 19.1669 -0.150935 0.0133375 0.0848094 
331 1 1 20.1576 31.4782 24.094 -0.0167003 -0.0938303 0.0778046 
332 1 1 14.2735 29.6107 19.9804 -0.0875509 -0.0821664 -0.109478 
333 1 1 14.6192 29.7235 20.8419 0.145273 -0.0845642 0.119864 
334 1 1 15.1906 30.0397 21.5535 -0.240934 -0.0618621 0.0373111 
335 1 1 19.2419 31.678 23.8769 -0.186465 -0.0693742 -0.0477403 
336 1 1 18.4014 31.1454 23.8716 -0.12084 -0.0737919 0.138763 
337 1 1 17.4825 30.7742 23.4458 -0.0627479 -0.0830049 -0.112674 
338 1 1 16.6204 30.629 22.957 -0.0162147 -0.0343189 -0.104165 
339 1 1 15.8218 30.3355 22.3268 -0.0111993 0.053667 0.0811622 
340 1 1 25.1764 28.443 18.2699 -0.262446 -0.0686787 -0.150722 
341 1 1 25.0938 30.4877 21.2216 0.10865 0.0800649 0.0878564 
342 1 1 24.6146 30.9366 21.896 -0.117299 0.0354777 -0.0874214 
343 1 1 24.1255 31.0541 22.6343 -0.0734749 0.139948 -0.0364518 
344 1 1 25.332 29.0827 18.7247 0.0125985 -0.041208 -0.0131308 
345 1 1 25.3657 29.7822 19.4537 0.133149 0.0333907 -0.122345 
346 1 1 25.2527 30.2484 20.2802 -0.138064 -0.0293674 -0.0666333 
347 1 1 24.8216 30.9622 20.4311 -0.12111 0.056748 0.102266 
348 1 1 24.6227 28.3383 17.6036 -0.0579216 0.0645457 -0.0835817 
349 1 1 24.019 28.2265 16.9283 0.015758 -0.140374 0.0618495 
350 1 1 23.2841 27.9259 16.2062 0.0188896 -0.0206625 0.0192248 
351 1 1 20.464 26.7726 15.4224 -0.0522938 -0.0936334 0.0149486 
352 1 1 19.6364 26.7889 15.3221 0.0968576 0.0689438 0.197327 
353 1 1 18.7151 26.8865 15.2952 -0.0388642 -0.128775 0.112773 
354 1 1 17.8369 27.0704 15.4377 0.169737 0.0903454 -0.11833 
355 1 1 16.7808 27.1922 15.6258 0.0290975 -0.135722 0.0686364 
356 1 1 15.8561 27.4415 15.8068 0.0585286 0.0974851 -0.0226359 
357 1 1 15.1685 27.7068 16.2037 -0.154527 -0.102796 0.0345531 
358 1 1 14.3335 28.2805 16.7423 -0.0317854 -0.0050768 -0.0628544 
359 1 1 13.6891 29.0291 17.2634 0.0129702 -0.0745261 -0.0040782 
360 1 1 22.3834 27.539 15.7052 -0.039435 -0.081266 -0.0767693 
361 1 1 21.2312 27.3136 15.278 -0.104766 0.155571 -0.0490203 
362 1 1 23.2629 31.4914 22.9316 0.00053203 -0.0464045 -0.0958571 
363 1 1 22.5428 31.7617 23.2089 0.00988964 0.0966891 -0.0407547 
364 1 1 21.5538 32.0222 23.3757 -0.0919988 0.0887815 -0.206052 
365 1 1 20.6351 32.2188 23.5607 -0.00551396 -0.0807243 -0.0348487 
366 1 1 13.249 29.8759 17.7414 -0.087145 0.00330491 -0.118873 
367 1 1 13.3936 30.0722 18.5447 0.0954979 0.00648378 -0.0943974 
368 1 1 13.7956 30.331 19.4541 -0.141858 0.0361685 0.0258874 
369 1 1 19.7168 32.2827 23.5847 0.197288 0.013507 -0.175167 
370 1 1 14.1567 30.5461 20.2652 -0.112515 0.00979376 0.222642 
371 1 1 14.6674 30.7333 21.1173 0.0375023 -0.231992 -0.0883788 
372 1 1 15.3542 30.973 21.821 0.0464636 -0.081557 -0.181774 
373 1 1 18.7981 32.0869 23.498 -0.035707 0.03327 0.164142 
374 1 1 17.9223 31.7725 23.3305 -0.0893838 0.326578 -0.0284786 
375 1 1 17.0144 31.6076 22.9782 -0.156954 0.0763901 -0.120078 
376 1 1 16.1302 31.2751 22.4795 -0.123738 0.0622716 -0.104366 
377 1 1 24.7296 29.2911 18.0189 0.0592921 0.10691 -0.0497443 
378 1 1 24.5744 31.3026 21.0904 -0.0120009 -0.000711481 -0.04417 
379 1 1 24.1719 31.5292 21.719 0.0169291 0.0667853 0.103983 
380 1 1 23.5324 31.9607 22.0456 0.0689903 0.0761188 0.0167221 
381 1 1 24.9593 30.0348 18.6342 -0.0874984 -0.135907 -0.125088 
382 1 1 24.9108 30.5439 19.4534 -0.103324 0.0138743 0.0208362 
383 1 1 24.524 31.2439 19.6444 -0.0183811 -0.000671787 -0.0681261 
384 1 1 24.3916 31.6147 20.3384 -0.00104589 0.0516706 0.127737 
385 1 1 24.1483 29.0374 17.1216 0.116627 0.0854194 0.0599596 
386 1 1 23.3913 28.731 16.374 0.0589906 0.0402018 0.127271 
387 1 1 22.6638 28.6 15.7199 0.137735 0.0315892 -0.0511868 
388 1 1 20.3151 27.3957 15.0395 -0.0884227 -0.134809 -0.0607222 
389 1 1 19.3523 27.4996 14.8365 0.00989339 0.0787199 0.0867426 
390 1 1 18.3459 27.6689 14.843 -0.0123003 0.0588962 0.225693 
391 1 1 17.2869 27.732 14.9133 0.0130247 -0.0261955 -0.178403 
392 1 1 16.3263 27.8773 14.9986 -0.134662 -0.048763 -0.0271434 
393 1 1 15.3777 28.1311 15.2561 -0.0582763 -0.0449746 0.0723905 
394 1 1 14.5632 28.4281 15.806 -0.093343 -0.0425134 -0.00902978 
395 1 1 13.7729 29.004 16.2694 0.0694443 -0.173851 -0.259613 
396 1 1 13.2209 29.6994 16.7498 0.140866 -0.0223179 -0.00893415 
397 1 1 21.8169 28.2552 15.179 -0.0334822 0.0488735 0.0168255 
398 1 1 20.8437 28.1408 14.7753 -0.0213206 -0.0998662 -0.107698 
399 1 1 22.8579 32.2279 22.3865 -0.219367 -0.0913794 -0.0354039 
400 1 1 22.0616 32.5008 22.7005 0.0560994 0.0366099 0.104852 
401 1 1 21.1006 32.7532 22.956 -0.00990346 -0.0766154 -0.127565 
402 1 1 12.7887 30.5381 17.1112 -0.015438 0.0419215 0.112011 
403 1 1 20.1512 32.9981 23.0385 -0.0388926 -0.102819 -0.10599 
404 1 1 12.8944 30.8642 17.9698 -0.0259452 -0.0597935 0.0599053 
405 1 1 13.2586 30.9963 18.8788 0.169346 0.0914562 -0.0698648 
406 1 1 13.689 31.2134 19.7682 0.0337523 -0.0845623 0.198908 
407 1 1 19.1899 32.9352 23.1143 0.145347 0.0390375 -0.0662887 
408 1 1 14.2331 31.4984 20.5494 0.0463694 0.101285 -0.0144562 
409 1 1 14.8767 31.7034 21.3183 0.0258847 -0.241354 0.1769 
410 1 1 15.6626 31.9456 21.8983 -0.0256615 0.0419344 0.134097 
411 1 1 18.3943 32.7123 22.9825 0.0290081 -0.0235154 0.057731 
412 1 1 17.4203 32.5655 22.8397 -0.143409 0.126449 -0.177026 
413 1 1 16.5233 32.2155 22.4176 -0.00561291 0.209553 0.146746 
414 1 1 24.5284 30.2952 18.0632 0.0323396 -0.0959693 -0.0170444 
415 1 1 24.1273 29.9917 17.3503 0.0320624 0.0944478 0.00449091 
416 1 1 23.8381 32.0755 20.9942 0.132845 -0.0118698 -0.174865 
417 1 1 23.0972 32.5603 21.4419 0.0734919 0.0427473 0.0674037 
418 1 1 24.5387 30.9096 18.6255 0.0565288 -0.0698957 0.213583 
419 1 1 24.2209 31.5927 19.0732 0.0295058 -0.0607633 -0.0140489 
420 1 1 23.9578 32.176 19.7727 -0.0461885 -0.0251799 0.0715757 
421 1 1 23.5932 29.6719 16.6319 0.0825313 -0.0193657 -0.199595 
422 1 1 22.9168 29.5147 15.966 0.0736823 0.106564 0.0277484 
423 1 1 22.1969 29.2705 15.2485 -0.158807 0.237872 0.119522 
424 1 1 19.9045 28.1601 14.5901 -0.168183 -0.152766 0.103185 
425 1 1 18.8826 28.2515 14.3389 0.0587874 -0.088119 -0.0622411 
426 1 1 17.7481 28.3247 14.3344 0.00977202 0.100622 0.171632 
427 1 1 16.7617 28.4255 14.3678 -0.0712303 0.114762 -0.0364362 
428 1 1 15.7288 28.5876 14.5304 -0.0675025 0.0379856 0.0743317 
429 1 1 12.7733 30.4996 16.2146 0.22055 0.175945 -0.0922632 
430 1 1 14.8512 28.8861 14.9392 -0.047503 -0.0686569 -0.11557 
431 1 1 14.1247 29.1769 15.4009 0.0455023 0.126136 0.130429 
432 1 1 13.3859 29.7467 15.8189 -0.0191987 -0.0660344 -0.0782405 
433 1 1 21.3909 28.957 14.7387 0.0203355 0.0260277 0.0265561 
434 1 1 20.3918 28.9043 14.2923 -0.0181457 -0.14946 0.0331897 
435 1 1 22.3618 32.9548 21.9135 -0.10232 -0.0429825 -0.0589473 
436 1 1 21.5463 33.2178 22.3108 0.128127 0.134331 0.0204573 
437 1 1 20.6126 33.5286 22.5191 0.130321 0.0934124 -0.143697 
438 1 1 12.3073 31.2811 16.6257 -0.0722872 0.218321 0.10338 
439 1 1 12.4542 31.5175 17.5781 -0.0122138 0.160519 -0.0333554 
440 1 1 19.6849 33.6745 22.5513 -0.130086 0.0211894 0.0621143 
441 1 1 12.8118 31.7925 18.4668 0.16799 0.107023 0.00190664 
442 1 1 13.262 31.9376 19.2275 -0.101454 0.0572348 -0.169865 
443 1 1 13.8027 32.2105 20.0448 0.0151765 -0.138595 -0.11668 
444 1 1 18.7369 33.6283 22.5894 0.142409 0.00905997 -0.167727 
445 1 1 14.4919 32.4176 20.7929 -0.0664742 0.0876414 0.010715 
446 1 1 15.2603 32.6581 21.4398 0.0733191 -0.198659 0.000707342 
447 1 1 16.1102 33.0009 21.9219 -0.0553472 -0.240235 0.185978 
448 1 1 17.8321 33.4367 22.5538 0.0224067 -0.0928177 -0.00171187 
449 1 1 16.9226 33.215 22.3223 -0.00340414 -0.0831301 -0.0531891 
450 1 1 24.1989 30.8364 17.7154 0.016196 -0.0745736 0.115083 
451 1 1 23.6797 30.644 16.9282 -0.0382423 0.0763461 0.0294837 
452 1 1 23.2393 32.7838 20.3877 -0.0177926 -0.00566313 -0.0889711 
453 1 1 22.6487 33.2363 20.9772 0.0950171 0.171328 0.0785876 
454 1 1 24.0165 31.6935 18.1336 0.00722826 0.0689272 -0.0148061 
455 1 1 23.8973 32.2928 18.7382 0.00516425 0.203208 0.0175674 
456 1 1 23.4397 32.9875 19.3296 0.124538 0.0418441 0.0830658 
457 1 1 23.1376 30.4665 16.2503 -0.154879 0.0125788 0.133848 
458 1 1 22.4857 30.2204 15.5486 -0.0389504 -0.0584419 0.0108828 
459 1 1 21.7543 29.9722 14.8344 -0.0195605 0.0839493 -0.193748 
460 1 1 19.4188 28.8539 14.0019 0.000650578 -0.0716927 -0.0293874 
461 1 1 18.3154 28.9072 13.8087 -0.0875123 0.0800901 -0.0213939 
462 1 1 17.2284 29.0638 13.7619 0.0576235 0.190992 0.0437471 
463 1 1 16.235 29.1777 13.8761 0.0173021 0.0372342 -0.101403 
464 1 1 15.3534 29.3685 14.0882 0.116415 -0.0652888 -0.106047 
465 1 1 12.3433 31.2729 15.7341 -0.119425 -0.213573 0.126931 
466 1 1 12.9516 30.5773 15.3373 -0.0570577 -0.0601335 0.077687 
467 1 1 14.5056 29.6064 14.4859 -0.120618 -0.151656 0.0877628 
468 1 1 13.7773 30.0107 14.8552 -0.211134 -0.108727 -0.0902432 
469 1 1 20.9079 29.782 14.2168 -0.095842 -0.151075 -0.00608059 
470 1 1 19.9524 29.6779 13.8149 -0.183202 -0.0267982 0.0903795 
471 1 1 21.9108 33.6969 21.3952 -0.0945614 -0.0268423 0.0704423 
472 1 1 21.1369 34.0243 21.8018 -0.208307 -0.03333 0.0141267 
473 1 1 20.1811 34.3209 21.9559 -0.159766 0.114647 -0.165845 
474 1 1 11.8041 32.0499 16.2401 0.165399 -0.0332536 -0.056834 
475 1 1 11.981 32.1744 17.1126 0.0731797 0.0576057 -0.0820902 