ITEM: TIMESTEP
0
ITEM: NUMBER OF ATOMS
37074
ITEM: BOX BOUNDS pp pp pp
0 62
0 62
0 62
ITEM: ATOMS id mol type x y z vx vy vz 
1 1 1 32.3807 13.979 18.9415 0.191912 0.143664 -0.0377159 
2 1 1 32.0849 13.6249 19.674 0.101662 -0.233012 -0.025538 
3 1 1 32.0558 13.1572 18.8048 0.080503 -0.00750505 0.240122 
4 1 1 31.6841 12.8052 19.5572 -0.0311398 -0.0911737 -0.103551 
5 1 1 32.3056 13.6466 18.0476 -0.125755 0.0641883 0.197351 
6 1 1 31.5647 12.3737 18.6119 -0.0250825 -0.0654263 -0.0595457 
7 1 1 31.0638 11.9779 19.3527 -0.10694 -0.0730137 -0.122485 
8 1 1 32.3817 14.5399 19.6144 0.00303607 -0.0445348 -0.0305906 
9 1 1 31.9806 14.2431 20.459 0.00839961 0.00682804 0.0557252 
10 1 1 31.6565 13.3623 20.4006 -0.0579864 -0.0258125 0.0170491 
11 1 1 31.2068 12.5581 20.2439 0.0209306 0.0277812 0.0690771 
12 1 1 30.5988 11.9323 20.2189 -0.0179808 0.0343973 -0.0824181 
13 1 1 32.6009 14.872 18.7193 -0.0436282 -0.0974912 -0.1807 
14 1 1 32.5261 14.3376 18.2024 0.142143 0.0506203 0.0508816 
15 1 1 32.4563 14.3263 17.4595 0.0328424 0.0577354 -0.0165337 
16 1 1 31.8923 12.8455 17.8737 -0.081006 -0.0882692 0.0100103 
17 1 1 32.0985 13.4701 17.1459 0.0470155 0.0249096 0.0349816 
18 1 1 30.3478 11.489 19.6392 0.040657 -0.0945696 0.166656 
19 1 1 30.4266 11.352 18.8511 0.0718752 0.0726923 0.0457871 
20 1 1 30.9333 11.6979 18.3378 -0.0410963 -0.0955511 -0.134487 
21 1 1 31.3109 12.1157 17.6622 -0.0829506 -0.101815 0.115125 
22 1 1 32.6371 15.6179 18.7047 -0.0395273 0.0931279 -0.06569 
23 1 1 32.4628 15.3413 19.6446 -0.10055 -0.0653543 0.0124445 
24 1 1 32.1314 15.1161 20.4732 0.133335 -0.0877177 0.02779 
25 1 1 31.7151 14.8982 21.1344 0.114114 -0.0938948 0.0706947 
26 1 1 31.4143 13.995 21.2192 -0.0181468 -0.124707 -0.0999259 
27 1 1 31.0188 13.1445 21.1453 0.0568798 -0.0819007 0.147217 
28 1 1 29.8332 11.4253 20.2359 -0.177156 -0.063316 -0.148438 
29 1 1 30.5083 12.4533 21.0523 -0.00957789 -0.0653973 0.0557239 
30 1 1 29.8669 11.8721 20.9414 -0.0961847 -0.0393889 -0.0850824 
31 1 1 32.6308 15.2274 17.8062 0.116154 0.200187 0.1361 
32 1 1 32.4325 14.8456 16.9249 -0.0503864 -0.158316 0.0813005 
33 1 1 32.1674 14.1302 16.5779 -0.0325119 0.0170572 0.012591 
34 1 1 31.57 12.6899 16.8736 -0.0143104 0.121432 -0.133583 
35 1 1 31.7583 13.4444 16.2525 -0.0623835 0.0467057 0.0341332 
36 1 1 29.7757 11.0966 19.4292 -0.064151 -0.0736337 0.0351397 
37 1 1 29.6521 10.9015 18.5966 -0.0455903 0.142335 -0.0226393 
38 1 1 29.117 11.0166 19.9976 -0.110923 -0.177689 -0.115639 
39 1 1 30.169 11.1618 17.9623 0.104357 0.0785635 0.114945 
40 1 1 30.5494 11.4902 17.398 -0.201503 0.0140396 -0.071348 
41 1 1 30.8893 12.0185 16.6555 -5.5795e-05 -0.103956 0.00817934 
42 1 1 32.6137 16.1375 18.1703 -0.00811856 -0.0102116 0.0608441 
43 1 1 32.4819 16.5887 18.9759 -0.0513181 -0.112932 -0.0149341 
44 1 1 32.4037 16.2167 19.6623 -0.0222052 0.0913323 -0.0134533 
45 1 1 32.2196 15.8385 20.2849 0.0577427 0.0208633 -0.09958 
46 1 1 31.8561 15.8729 20.9568 0.0480015 -0.108545 0.142491 
47 1 1 31.3713 15.7384 21.609 -0.0561633 0.104769 0.0139607 
48 1 1 31.1125 14.7581 21.8132 0.0585048 0.105119 -0.114708 
49 1 1 30.7033 13.8031 21.8649 -0.0215315 0.105167 -0.0993107 
50 1 1 30.2306 13.0417 21.7976 -0.0986135 0.11607 -0.0287636 
51 1 1 29.1497 11.4208 20.785 -0.0144839 -0.00978191 0.0114771 
52 1 1 29.6797 12.3892 21.6432 0.0128703 -0.0338563 -0.0502546 
53 1 1 29.2457 11.8571 21.3315 -0.0612033 0.153297 -0.0127435 
54 1 1 32.5441 16.1268 17.4272 0.0211914 -0.0222373 0.109866 
55 1 1 32.3658 17.0696 17.7154 0.170024 -0.0192584 -0.169469 
56 1 1 32.4689 15.5915 16.9115 -0.0193188 0.0548172 -0.0987167 
57 1 1 32.2052 15.0313 16.2396 0.0373896 -0.0650923 -0.0367619 
58 1 1 32.2455 16.388 16.5013 0.0128711 -0.0735765 0.0498072 
59 1 1 31.8034 14.2881 15.7387 -0.025302 0.0987694 -0.102529 
60 1 1 31.1459 12.7313 15.9656 -0.0647663 0.323885 -0.126966 
61 1 1 31.3245 13.6241 15.4192 0.0597011 0.0279845 -0.0687901 
62 1 1 29.5077 10.8465 17.8692 -0.0353475 -0.098185 -0.0289585 
63 1 1 29.0179 10.7489 19.1658 -0.0290935 -0.0690394 -0.130353 
64 1 1 28.8504 10.6197 18.3021 0.109998 0.126061 -0.194052 
65 1 1 28.4274 11.1188 20.5956 0.0402333 -0.14958 0.00423333 
66 1 1 28.3416 10.7444 19.7324 0.107097 -0.128564 0.0142003 
67 1 1 29.7025 11.0279 17.2434 -0.0187211 0.0821797 0.102533 
68 1 1 30.0864 11.479 16.5005 0.320581 -0.227437 -0.0651599 
69 1 1 30.4359 12.1337 15.798 0.0200069 0.263542 -0.0838872 
70 1 1 32.4069 17.0212 18.5374 0.031114 0.102936 0.118412 
71 1 1 32.2345 17.1554 19.3882 -0.113043 0.06034 0.0297179 
72 1 1 31.9638 16.8119 20.435 0.0306991 -0.0240411 0.014688 
73 1 1 31.463 16.6803 21.2851 -0.0326088 -0.0330353 -0.00994505 
74 1 1 30.9302 16.4198 21.9332 0.0928532 0.0245192 0.00477511 
75 1 1 30.7006 15.5295 22.2382 0.105843 0.135897 -0.0428018 
76 1 1 30.3368 14.5685 22.3921 0.118922 0.124459 -0.0343021 
77 1 1 29.8747 13.6769 22.3735 -0.0490269 -0.00717605 0.0181013 
78 1 1 29.3662 13.0108 22.2699 -0.21939 0.0324393 0.0598641 
79 1 1 28.5209 11.6264 21.3389 0.0415791 0.164116 -0.024574 
80 1 1 28.7234 12.3345 22.0094 0.0556824 -0.0752918 -0.200209 
81 1 1 27.7174 11.3663 21.1123 0.112041 0.0208912 0.11362 
82 1 1 32.0277 17.8975 18.0319 0.13768 0.0808582 -0.127731 
83 1 1 32.1913 17.0672 16.8827 0.0132321 -0.0399959 0.0897758 
84 1 1 32.0465 17.6761 17.3126 -0.0307973 -0.244135 -0.135312 
85 1 1 32.1218 15.9519 16.0686 -0.00393946 -0.0110793 -0.127332 
86 1 1 31.7759 15.2612 15.4424 -0.00305051 0.0836112 -0.0989892 
87 1 1 31.901 16.7972 15.9775 -0.0827502 -0.0340307 0.00594651 
88 1 1 31.2799 14.5349 14.9542 0.000578241 -0.130205 -0.0748597 
89 1 1 30.6302 12.9498 15.1439 -0.0049498 -0.181335 -0.104189 
90 1 1 30.729 13.9336 14.6389 0.081481 -0.0942959 0.118215 
91 1 1 28.8007 10.7156 17.2519 -0.147656 -0.0061035 -0.0256028 
92 1 1 28.2101 10.5363 18.8136 -0.176834 0.0963069 0.117157 
93 1 1 28.0532 10.5069 17.8711 -0.00777163 -0.117679 0.0584054 
94 1 1 27.6153 10.892 20.2605 -0.192456 0.0507534 0.0169195 
95 1 1 27.5135 10.5926 19.3333 -0.0649652 -0.198777 0.071988 
96 1 1 29.1902 11.0928 16.4123 0.202159 -0.014845 0.058888 
97 1 1 29.6099 11.6587 15.6976 0.0175489 0.00839473 -0.303129 
98 1 1 29.8792 12.4658 14.9536 -0.0265195 0.170623 -0.00523159 
99 1 1 32.0172 17.848 18.8938 -0.127778 -0.153092 -0.0774071 
100 1 1 31.7493 17.8476 19.897 -0.0134746 0.0174513 0.0173131 
101 1 1 31.3702 17.6728 20.8035 -0.0372336 0.120137 0.177116 
102 1 1 30.852 17.4252 21.5896 -0.139447 0.112505 -0.0267262 
103 1 1 30.3386 16.1913 22.4305 0.029232 0.0593021 -0.172419 
104 1 1 30.3382 16.9011 22.2448 0.129091 0.0428211 -0.105597 
105 1 1 29.8047 15.4553 22.7856 -0.122823 -0.0977311 0.0801271 
106 1 1 29.4456 14.3754 22.8078 -0.046939 0.00216331 -0.0200902 
107 1 1 28.9623 13.6194 22.7248 0.0794024 0.128416 0.115212 
108 1 1 28.5799 13.0713 22.5543 -0.143778 -0.0243327 -0.0121983 
109 1 1 26.8672 11.1554 20.7846 0.0231759 0.122054 0.105654 
110 1 1 27.818 11.998 21.8543 -0.0688788 -0.0069658 -0.0824575 
111 1 1 27.914 12.763 22.46 0.0640826 -0.124089 0.0313533 
112 1 1 26.9362 11.7063 21.5758 0.0220417 0.034631 0.0818385 
113 1 1 31.6562 18.3214 17.3011 -0.111499 -0.160496 -0.103957 
114 1 1 31.6303 18.5163 18.2787 0.0855151 -0.0100809 -0.0717235 
115 1 1 31.6421 17.8236 16.3611 -0.0388181 0.0692206 0.0510486 
116 1 1 31.142 18.6366 16.5674 0.0191504 -0.148191 0.0389917 
117 1 1 31.6039 16.2932 15.3097 -0.109783 -0.0685314 -0.164549 
118 1 1 31.1626 15.5771 14.7042 -0.0825943 -0.0304092 -0.0350114 
119 1 1 31.3038 17.2803 15.3596 -0.216869 0.0249 0.0178844 
120 1 1 30.6022 14.8348 14.281 -0.251516 -0.0729451 -0.0919406 
121 1 1 30.017 13.3293 14.4205 -0.107467 0.129677 0.0526948 
122 1 1 30.0759 14.3133 14.0519 0.0576201 0.0221736 0.0304892 
123 1 1 28.2339 10.876 16.3964 -0.142283 0.0140304 0.0785305 
124 1 1 27.9261 10.6305 17.0638 -0.216351 -0.00504115 -0.0417148 
125 1 1 27.4167 10.4828 18.3641 0.066599 -0.0865576 -0.167505 
126 1 1 27.3308 10.5641 17.391 -0.0938575 0.0174171 -0.100367 
127 1 1 26.7732 10.7771 19.9328 0.0903935 0.0534871 0.0545921 
128 1 1 26.6272 10.5712 19.0456 -0.00548476 0.00182694 0.150007 
129 1 1 26.0639 10.9817 20.4322 -0.0221182 -0.0215704 -0.140644 
130 1 1 29.2724 12.8848 14.3116 -0.0720221 -0.022463 0.267958 
131 1 1 28.6661 11.301 15.7095 -0.134259 0.0593114 -0.0719044 
132 1 1 28.916 12.1098 14.7939 0.0850546 0.0843272 -0.0872971 
133 1 1 31.4596 18.5824 19.2279 0.069466 0.0444157 0.0804994 
134 1 1 31.1884 18.4453 20.2041 -0.0388198 0.117678 -0.190343 
135 1 1 30.1128 17.6135 22.0685 0.0895816 -0.0363877 0.0748622 
136 1 1 30.7923 18.266 20.9928 0.0467014 -0.0656504 0.104667 
137 1 1 30.237 18.1863 21.5906 -0.0221052 -0.0438056 -0.0313319 
138 1 1 29.6825 16.489 22.7289 -0.0932294 0.0687002 -0.0982154 
139 1 1 29.6465 17.3323 22.4678 0.0511877 -0.00312117 -0.0567823 
140 1 1 28.9648 16.0181 23.0657 -0.0779056 0.0537107 0.00707096 
141 1 1 28.845 15.0114 23.1044 0.0973579 0.0495894 0.154577 
142 1 1 28.704 14.2476 23.0026 -0.0359337 0.00886139 -0.0410922 
143 1 1 27.9986 13.6328 22.9046 0.0305445 -0.0656869 0.00476161 
144 1 1 26.1214 11.455 21.2714 -0.0276403 0.00364814 -0.105555 
145 1 1 27.1544 12.4011 22.2415 -0.0952796 -0.0258225 -0.00910625 
146 1 1 27.2989 13.0007 22.6442 0.130533 0.0411934 -0.124951 
147 1 1 26.214 12.0745 21.9993 -0.188588 -0.0322584 -0.0523588 
148 1 1 31.1622 18.9597 17.4882 0.0449128 -0.00758716 -0.0336917 
149 1 1 31.0218 19.1723 18.5036 0.0346669 0.117093 -0.0955754 
150 1 1 30.9119 18.1646 15.5872 0.0519734 0.0338363 -0.0501112 
151 1 1 30.6119 19.2764 16.9077 0.0864897 -0.0270395 -0.131573 
152 1 1 30.3973 18.943 15.9256 -0.104533 0.109876 0.149358 
153 1 1 30.9345 16.6043 14.6657 -0.0444227 -0.00675682 -0.0911862 
154 1 1 30.441 15.8658 14.1342 0.00687639 -0.0396493 -0.0329775 
155 1 1 30.6442 17.5415 14.8304 -0.0344943 -0.0571485 0.066762 
156 1 1 29.8158 15.1252 13.774 0.0301877 -0.13959 -0.0285642 
157 1 1 29.3581 13.7438 13.9005 0.0445626 -0.011785 0.137428 
158 1 1 29.428 14.5151 13.6952 -0.0759344 0.030748 -0.0189786 
159 1 1 27.86 11.1222 15.8189 0.138654 -0.12688 -0.0216573 
160 1 1 27.2573 10.8347 16.4514 0.0962117 0.198252 0.201968 
161 1 1 26.5595 10.6735 17.1289 -0.2324 0.153964 0.194682 
162 1 1 26.4761 10.5415 18.0124 0.0450818 0.099183 -0.0230054 
163 1 1 25.9155 10.7025 19.6067 -0.0256015 -0.0866216 -0.030892 
164 1 1 25.8803 10.579 18.8604 0.102461 -0.0101102 -0.160554 
165 1 1 25.3043 11.2032 20.8745 0.190364 0.131962 0.125795 
166 1 1 25.4064 10.8757 20.1448 0.068784 -0.0987663 -0.187697 
167 1 1 28.549 12.7238 14.1911 0.0570678 -0.0914565 -0.0506416 
168 1 1 28.6984 13.3962 13.8444 0.0779699 -0.0529548 -0.0200567 
169 1 1 27.928 11.5764 15.1517 -0.0788398 -0.0120584 0.123977 
170 1 1 27.9251 12.2359 14.4713 0.0977291 -0.0743683 0.296784 
171 1 1 30.7563 19.198 19.524 0.007713 0.00324652 0.112891 
172 1 1 30.4245 19.068 20.3858 -0.189267 0.0323129 -0.032115 
173 1 1 29.5706 18.0445 22.1126 0.272276 0.00679083 -0.0327926 
174 1 1 29.9598 18.9226 21.0705 -0.0629404 -0.050958 -0.012149 
175 1 1 29.5843 18.5993 21.6682 -0.0719855 0.127014 0.00226115 
176 1 1 28.918 17.8298 22.4986 -0.0915712 0.132375 0.012648 
177 1 1 28.9398 16.9651 22.868 -0.0390169 -0.187826 -0.0122104 
178 1 1 28.1662 16.5207 23.1321 -0.0168321 0.0722103 -0.00991883 
179 1 1 28.1264 15.549 23.2475 -0.0578121 -0.181697 0.012717 
180 1 1 28.0704 14.5733 23.1701 -0.0076192 -0.0598748 0.0983833 
181 1 1 27.304 14.2804 23.169 0.137102 -0.004102 -0.0334785 
182 1 1 27.005 13.6819 22.9966 -0.254328 -0.044927 -0.0291958 
183 1 1 25.3084 11.7735 21.7107 -0.0630808 0.0191036 0.12045 
184 1 1 24.6228 11.3896 21.1989 0.117666 0.0675281 0.070484 
185 1 1 26.3908 12.8948 22.6378 0.0625191 -0.0682411 -0.0444558 
186 1 1 25.5659 12.3759 22.3044 -0.01968 0.153334 -0.173996 
187 1 1 30.4953 19.5708 17.8192 0.0454478 -0.0698247 0.0193062 
188 1 1 30.2677 19.7096 18.8153 -0.0225712 -0.0337742 -0.216222 
189 1 1 30.23 18.3397 15.0769 -0.0282073 -0.00116769 -0.144169 
190 1 1 29.6752 18.9139 15.2498 0.215806 -0.107897 -0.112583 
191 1 1 30.0404 19.7452 17.2165 0.04922 -0.00128303 -0.0908815 
192 1 1 29.9429 19.5717 16.5346 0.0134456 0.0267975 0.0780075 
193 1 1 29.6097 19.3828 15.8329 -0.0358052 -0.0203104 -0.102182 
194 1 1 30.1385 16.8718 14.1585 -0.098107 -0.173441 0.0390475 
195 1 1 29.5892 16.1494 13.7068 -0.00854309 0.0714754 -0.0852387 
196 1 1 29.7826 17.7143 14.3357 0.0142518 -0.0536951 -0.146965 
197 1 1 28.9174 15.2813 13.4366 -0.0372925 0.105865 -0.173579 
198 1 1 28.6813 14.2869 13.5233 -0.104339 0.147504 0.0900313 
199 1 1 27.1986 11.2845 15.5826 -0.225814 0.010679 0.103949 
200 1 1 26.5731 11.1895 15.8482 0.134164 -0.0618282 -0.0319831 
201 1 1 26.2621 10.8844 16.5441 -0.0319147 -0.0436112 0.00835438 
202 1 1 25.7943 10.6933 17.2784 -0.0152283 -0.0991586 0.00945676 
203 1 1 25.3299 10.5937 18.1798 0.221374 -0.00755535 -0.0757458 
204 1 1 24.9631 10.6621 19.2484 -0.0294004 0.0639639 -0.00804282 
205 1 1 24.4549 10.9492 20.305 0.168914 0.0868843 0.0884546 
206 1 1 27.8899 13.0027 13.9306 0.00663813 0.0709503 -0.118853 
207 1 1 27.8842 13.8555 13.5462 0.113209 -0.051798 -0.0142896 
208 1 1 27.1564 11.8942 14.8174 -0.0605056 0.01073 -0.0866826 
209 1 1 27.1353 12.6439 14.1835 -0.093357 0.0119874 0.145865 
210 1 1 29.9352 19.6692 19.773 0.0743622 0.0116206 0.00389767 
211 1 1 29.5249 19.5476 20.4974 0.00279224 0.137312 -0.0698031 
212 1 1 28.9145 18.5777 21.9861 -0.024627 0.0154833 -0.190162 
213 1 1 28.9823 19.2607 21.2594 0.0679002 -0.00580292 0.12619 
214 1 1 28.1834 18.3109 22.3561 -0.156697 0.00221908 0.109991 
215 1 1 28.1843 17.4545 22.8315 -0.0234967 -0.0674359 -0.0969537 
216 1 1 23.8575 11.3181 21.089 0.169435 0.0494977 -0.078836 
217 1 1 24.2636 11.8176 21.7996 0.0356213 -0.0594473 0.164756 
218 1 1 27.3827 17.0911 23.0609 -0.0956772 -0.0591857 -0.0642861 
219 1 1 27.3031 16.1979 23.2774 0.149838 -0.0874888 -0.150289 
220 1 1 27.2023 15.1598 23.3204 -0.07418 -0.150651 0.0262236 
221 1 1 26.5388 14.3957 23.2585 -0.316278 0.234331 0.13916 
222 1 1 26.01 13.732 23.0891 0.050934 -0.0636967 0.0291489 
223 1 1 24.8091 12.3509 22.321 -0.0327034 -0.0182466 0.16774 
224 1 1 25.3112 13.0179 22.7804 -0.166449 -0.127658 0.0702314 
225 1 1 29.389 20.0863 19.1503 -0.140805 0.214348 0.0615103 
226 1 1 29.5947 20.0806 18.0303 0.175644 -0.0967819 0.113077 
227 1 1 29.2963 18.4078 14.5657 0.154757 0.0145438 0.0698961 
228 1 1 28.9714 18.9672 14.9391 -0.0946284 0.180997 0.107057 
229 1 1 29.0052 19.4073 15.4875 0.0191574 -0.0216693 -0.000129649 
230 1 1 29.3152 20.0223 17.0078 0.000436323 0.0967739 -0.0148412 
231 1 1 29.1679 19.7696 16.1968 0.0214508 0.159359 0.010422 
232 1 1 29.2476 17.0851 13.8107 0.076543 -0.00945871 0.197952 
233 1 1 28.6722 16.4351 13.4705 -0.0694529 -0.0792717 -0.105508 
234 1 1 28.8338 17.8003 14.0027 -0.0140871 0.172573 -0.0279491 
235 1 1 27.9722 15.8668 13.2977 -0.0571971 -0.169635 0.0157461 
236 1 1 27.9799 14.8243 13.3246 0.0420277 0.0947242 -0.0753865 
237 1 1 26.4609 11.6069 15.2518 -0.0837548 0.0596849 0.111553 
238 1 1 25.6722 11.3248 15.7828 -0.00345715 0.0805488 -0.0539981 
239 1 1 25.2678 10.9336 16.6369 0.033692 0.158314 0.111349 
240 1 1 24.8005 10.7129 17.5105 0.0331219 -0.125375 -0.0076181 
241 1 1 24.3464 10.637 18.4175 -0.0405379 0.0821722 -0.0595428 
242 1 1 23.8921 10.72 19.3747 -0.0633068 0.0397893 0.051513 
243 1 1 23.4239 10.9616 20.2927 -0.0337039 -0.0343255 0.0218418 
244 1 1 27.1322 13.5007 13.7077 0.0449479 0.138645 0.0137494 
245 1 1 27.1518 14.433 13.4077 -0.0377914 0.025628 0.0907093 
246 1 1 26.3121 12.2951 14.5608 -0.119823 -0.104818 -0.0445758 
247 1 1 26.3292 13.0869 14.007 0.308408 0.0142938 -0.019752 
248 1 1 29.0246 19.98 19.964 -0.131758 0.0419305 -0.129813 
249 1 1 28.7281 19.7936 20.5572 -0.0611406 -0.0547748 0.16542 
250 1 1 28.1621 19.0592 21.7229 0.0686188 0.132275 0.000471453 
251 1 1 28.1213 19.6687 20.9577 -0.14288 -0.0664421 0.1593 
252 1 1 27.3431 18.7445 22.1344 0.160493 -0.0287676 -0.0406753 
253 1 1 27.385 17.9483 22.6816 0.096017 0.113255 0.150186 
254 1 1 22.8965 11.3417 21.1323 0.00247562 0.0426009 0.0832601 
255 1 1 23.3663 11.8035 21.8121 -0.0667313 -0.10196 0.064182 
256 1 1 23.8526 12.4059 22.4171 -0.0309822 0.209474 0.149598 
257 1 1 26.6309 17.5605 22.9645 0.0543891 0.135803 0.0444145 
258 1 1 26.558 16.7291 23.2529 0.239071 0.0235653 0.0174963 
259 1 1 26.5708 15.9815 23.3735 -0.0104282 -0.0193389 0.0543332 
260 1 1 26.0553 15.2761 23.4297 -0.100716 0.164697 0.0468703 
261 1 1 25.5427 14.5848 23.3821 0.0222819 -0.00338805 -0.00996915 
262 1 1 25.0158 13.7837 23.1816 0.0068599 -0.00414504 0.174273 
263 1 1 24.4082 13.08 22.8755 -0.0637019 0.135517 0.138746 
264 1 1 28.6682 20.2472 19.3802 0.0130037 0.0926059 -0.0577167 
265 1 1 28.6974 20.3564 18.6 0.037854 -0.0162411 0.0335382 
266 1 1 28.6534 20.3287 17.5942 0.122676 0.0469226 0.0390054 
267 1 1 28.285 18.5243 14.3566 0.0119245 -0.0332435 -0.138233 
268 1 1 28.2684 19.263 15.062 0.149793 0.0945919 -0.0857849 
269 1 1 28.3886 19.7605 15.7985 -0.138906 -0.0415098 0.095621 
270 1 1 28.5152 20.1293 16.6553 -0.21959 -0.147977 -0.0369346 
271 1 1 28.2945 17.2374 13.6356 0.0434007 -0.078409 0.0180558 
272 1 1 27.9302 16.6362 13.4174 -0.0796306 0.20182 0.00655274 
273 1 1 28.004 17.819 13.8681 -0.047405 -0.00262254 0.0118412 
274 1 1 27.2463 16.3809 13.3733 -0.0283778 0.0691467 -0.102556 
275 1 1 27.191 15.406 13.2949 0.136238 0.1375 -0.166136 
276 1 1 25.5526 11.9796 14.9632 0.124865 0.043488 -0.0281322 
277 1 1 24.8816 11.7698 15.2948 -0.0343535 -0.0244098 -0.17481 
278 1 1 24.589 11.3381 15.9491 -0.0561999 -0.0121961 0.09204 
279 1 1 24.2732 10.9846 16.7294 0.0541579 0.029765 -0.0310591 
280 1 1 23.8401 10.7603 17.6018 0.014516 -0.200503 0.0888526 
281 1 1 23.4161 10.6844 18.5044 -0.134066 -0.0680085 -0.171293 
282 1 1 22.9529 10.7658 19.455 -0.156025 -0.16043 0.22592 
283 1 1 22.426 11.0073 20.3725 -0.061765 0.216151 0.108518 
284 1 1 26.3411 13.9435 13.6269 -0.0236573 0.0132933 -0.0707149 
285 1 1 26.3149 14.8428 13.4221 -0.027344 -0.128661 0.0624843 
286 1 1 25.5369 12.7118 14.341 -0.021676 0.0795439 -0.0565415 
287 1 1 25.5768 13.5515 13.864 -0.14217 0.13192 0.0829883 
288 1 1 28.0643 20.1177 20.0886 -0.0570719 0.0313281 -0.106542 
289 1 1 27.4306 19.4191 21.4211 0.0150495 0.150939 -0.0677512 
290 1 1 27.4708 19.8281 20.8098 0.0404934 -0.180271 -0.0554412 
291 1 1 21.9099 11.3864 21.2169 0.0331251 0.0929256 -0.135793 
292 1 1 26.5574 19.1361 21.877 0.0601914 -0.00950317 0.0694317 
293 1 1 26.5855 18.4038 22.4966 -0.027902 -0.0315615 -0.100044 
294 1 1 22.3947 11.8396 21.8864 -0.0498855 -0.050531 -0.0528684 
295 1 1 22.9096 12.4313 22.4857 0.123544 0.0379551 -0.00334169 
296 1 1 23.4511 13.0848 22.9373 -0.0186237 -0.198165 0.210398 
297 1 1 25.8291 17.9706 22.8583 -0.0785866 -0.119611 -0.0839548 
298 1 1 26.0079 17.245 23.1597 -0.143336 -0.0809581 -0.0783729 
299 1 1 25.6375 16.3293 23.4236 0.224566 -0.105671 0.0799638 
300 1 1 25.0676 15.473 23.5279 0.111972 0.115777 0.257293 
301 1 1 24.5827 14.6361 23.4712 -0.00314903 0.175134 -0.0241432 
302 1 1 24.0229 13.8337 23.2743 -0.0429927 0.112097 -0.195373 
303 1 1 27.805 20.3584 17.2077 0.0330146 0.0408926 0.00221362 
304 1 1 27.9899 20.3877 19.1493 -0.0595154 0.0609776 -0.0241702 
305 1 1 27.9037 20.4687 18.1764 -0.0151969 0.0138946 0.0541554 
306 1 1 27.4048 18.1914 14.0808 0.216081 -0.044297 -0.137927 
307 1 1 27.5007 18.9576 14.6849 -0.1289 -0.0317194 0.130678 
308 1 1 27.6012 19.5886 15.4279 0.153305 -0.0154178 -0.114427 
309 1 1 27.7034 20.0613 16.2807 -0.171016 0.0730277 -0.155392 
310 1 1 27.3198 17.3215 13.6384 -0.0532979 0.144271 -0.0811363 
311 1 1 26.5263 16.7482 13.5135 0.122597 -0.0203301 -0.0596825 
312 1 1 26.3116 15.8858 13.3902 -0.0107415 0.0729899 -0.00464267 
313 1 1 24.685 12.3921 14.6988 0.0567973 0.0942241 0.0413226 
314 1 1 24.1291 11.8611 15.301 0.111222 -0.098164 0.0265714 
315 1 1 23.6845 11.373 16.0501 -0.119021 0.059403 0.0739949 
316 1 1 23.2785 11.0336 16.8223 -0.0215458 -0.0922872 0.101571 
317 1 1 22.8461 10.8105 17.6943 -0.0328478 0.144996 0.0258268 
318 1 1 22.4235 10.7347 18.5969 0.052391 0.00990647 -0.128504 
319 1 1 21.9308 10.8212 19.5738 -0.144492 -0.0369271 -0.131522 
320 1 1 21.4262 11.0592 20.469 0.0166923 0.259921 -0.123434 
321 1 1 25.5358 14.3882 13.5871 0.0218392 0.0161913 0.0213204 
322 1 1 25.6024 15.1314 13.4599 0.125404 -0.169177 -0.218136 
323 1 1 24.7737 13.2212 14.1212 -0.0125553 -0.165369 0.113082 
324 1 1 24.9626 13.9296 13.785 0.085919 0.155768 0.112534 
325 1 1 27.2726 20.3538 19.5483 0.027727 -0.0784447 0.0206205 
326 1 1 27.0688 20.1683 20.1799 0.0915043 0.0899822 0.0868505 
327 1 1 26.5886 19.7824 21.0428 0.0865447 0.219981 -0.0553343 
328 1 1 25.8602 19.4133 21.6725 0.107928 0.0752862 -0.028496 
329 1 1 20.9279 11.4287 21.294 0.16169 0.0545894 0.0932944 
330 1 1 21.4032 11.8874 21.9774 -0.0827605 -0.118883 0.123113 
331 1 1 25.7165 18.8087 22.3005 0.0947742 0.0035776 -0.0347102 
332 1 1 21.9165 12.4811 22.5787 0.0170458 -0.262211 -0.0593983 
333 1 1 22.457 13.1367 23.0302 0.00768694 0.116826 0.0446252 
334 1 1 23.0284 13.8836 23.3666 -0.00813309 0.0773557 0.161568 
335 1 1 25.1153 18.2673 22.7726 0.221787 0.0474406 -0.0319538 
336 1 1 25.0496 17.3644 23.2229 -0.119664 -0.132877 0.0547007 
337 1 1 24.5656 16.4108 23.5208 -0.0332588 -0.071161 0.1316 
338 1 1 24.1389 15.5182 23.6159 -0.164517 -0.0184796 0.106384 
339 1 1 23.589 14.6856 23.5646 -0.0118908 -0.0542426 0.0823439 
340 1 1 26.7445 18.0159 14.0157 -0.0607327 0.0776802 0.0474334 
341 1 1 26.951 20.2546 16.7557 -0.134678 0.0691841 0.0679467 
342 1 1 26.9944 20.4666 17.6525 -0.0150892 0.137855 -0.162407 
343 1 1 27.0423 20.5028 18.6939 -0.0505746 0.075334 -0.0824581 
344 1 1 26.7382 18.6234 14.4318 0.112536 -0.0523155 0.0320577 
345 1 1 26.718 19.3303 15.1183 -0.00626689 0.0664766 -0.166222 
346 1 1 26.8497 19.8775 15.9035 -0.0261537 -0.0778654 -0.0340522 
347 1 1 26.1458 20.1279 16.3978 -0.174467 -0.158696 0.142526 
348 1 1 26.3248 17.3707 13.7313 0.00388565 -0.0595118 -0.0548348 
349 1 1 25.7495 16.7092 13.566 -0.0598749 0.102512 -0.155744 
350 1 1 25.1573 15.8844 13.4939 0.154609 0.142331 0.00623176 
351 1 1 24.062 12.9972 14.3384 0.0954643 -0.0611916 0.101814 
352 1 1 23.6409 12.4544 14.7862 0.0837895 0.0615515 -0.0116292 
353 1 1 23.1713 11.9041 15.3962 0.0369106 -0.0542609 0.0625369 
354 1 1 22.7301 11.4467 16.098 -0.00380332 -0.0394855 -0.108799 
355 1 1 22.2849 11.085 16.9146 0.0843866 0.126938 -0.0338572 
356 1 1 21.8515 10.8616 17.7879 0.0754956 0.00479685 -0.0224673 
357 1 1 21.4292 10.7849 18.6901 -0.0498511 0.128024 0.0426658 
358 1 1 20.9379 10.8711 19.6644 0.0646341 -0.126432 0.0600757 
359 1 1 20.409 11.1087 20.5589 0.151731 -0.0613956 -0.148894 
360 1 1 24.6446 14.8788 13.5841 0.012165 -0.00992555 -0.230497 
361 1 1 24.0039 13.9054 13.9011 -0.0406704 0.0142087 -0.0748469 
362 1 1 26.4954 20.413 19.5421 0.000365163 0.0700389 -0.206396 
363 1 1 26.0738 20.2205 20.2723 -0.0623937 0.0550379 0.0328694 
364 1 1 25.4979 19.8793 21.0776 0.0459611 -0.0493638 0.00381436 
365 1 1 25.1134 19.3983 21.8047 0.0956877 -0.0081592 0.151587 
366 1 1 19.9163 11.492 21.4131 0.0630685 0.0497344 -0.0433769 
367 1 1 20.4054 11.9296 22.0601 0.148026 -0.0184827 -0.00560316 
368 1 1 20.9171 12.5278 22.6689 0.0143861 0.0544584 -0.0274637 
369 1 1 24.6715 18.852 22.4058 0.0511613 -0.00104448 -0.0374278 
370 1 1 21.463 13.1854 23.1228 0.216682 -0.174441 -0.156979 
371 1 1 22.0329 13.9341 23.4595 0.0810546 -0.0228472 -0.0998552 
372 1 1 22.5949 14.7353 23.6575 -0.077792 0.155006 0.0688221 
373 1 1 24.3728 18.1224 22.9485 -0.101401 -0.0140923 -0.102637 
374 1 1 24.0302 17.3071 23.3567 0.0510781 -0.08018 0.0412629 
375 1 1 23.6273 16.4475 23.6109 -0.0378879 -0.0649205 -0.0118096 
376 1 1 23.1436 15.5683 23.7087 0.00330358 0.224588 -0.0225455 
377 1 1 25.8681 18.211 14.1896 -0.023836 0.131481 0.038255 
378 1 1 26.1813 20.4129 17.2337 0.0809818 -0.0497808 0.0864482 
379 1 1 26.2981 20.5326 17.9728 -0.0142623 -0.0252358 0.0046584 
380 1 1 25.8841 20.5657 18.7434 0.0858911 0.0864999 0.0458072 
381 1 1 25.8963 19.0408 14.8406 -0.158279 0.186505 0.160057 
382 1 1 26.0016 19.6596 15.5659 0.0152408 0.0581944 -0.0221769 
383 1 1 25.3007 19.9885 16.105 0.0160647 0.0134588 0.202995 
384 1 1 25.5669 20.2971 16.8003 0.00725983 0.0561784 0.00025917 
385 1 1 25.3302 17.42 13.8239 -0.0595335 0.0130222 0.0399243 
386 1 1 24.7347 16.6225 13.6294 0.0402201 0.007939 -0.0360387 
387 1 1 24.1517 15.7886 13.5801 -0.0973019 -0.140805 -0.0380384 
388 1 1 23.3168 13.2149 14.3004 -0.0879696 -0.0978366 -0.168562 
389 1 1 22.7506 12.5699 14.8107 -0.0783726 0.0625036 0.0965552 
390 1 1 22.2309 11.9702 15.4639 -0.00994155 -0.0128798 -0.0739921 
391 1 1 21.7349 11.4975 16.191 -0.0609433 -0.00884803 -0.0789483 
392 1 1 21.2901 11.1352 17.0085 -0.00415365 0.122767 0.221719 
393 1 1 20.8574 10.9125 17.8802 0.153093 -0.0791974 0.135287 
394 1 1 20.4351 10.8353 18.7832 0.0597717 -0.0836861 0.0797349 
395 1 1 19.9294 10.9201 19.753 0.170769 0.00954855 0.0577815 
396 1 1 19.4227 11.1541 20.6395 -0.28246 -0.186763 -0.145652 
397 1 1 23.5704 14.9051 13.6882 -0.144346 0.0860979 -0.121219 
398 1 1 22.9863 14.0651 13.9561 -0.015152 -0.0218284 -0.156163 
399 1 1 25.4775 20.4937 19.4984 0.110586 0.00110135 0.00201394 
400 1 1 25.0793 20.2695 20.3673 0.137596 -0.0128341 0.0561645 
401 1 1 24.591 19.9352 21.1466 -0.0675206 -0.0453827 -0.0381402 
402 1 1 18.9364 11.5169 21.4574 -0.0974165 -0.0914364 -0.00543572 
403 1 1 24.155 19.4524 21.8874 -0.00968102 -0.0538602 -0.0348243 
404 1 1 19.4007 11.9913 22.1667 0.164673 0.0862041 -0.125196 
405 1 1 19.9118 12.5661 22.7505 -0.15813 0.0516454 0.121036 
406 1 1 20.4684 13.2367 23.216 -0.139104 0.189792 -0.00295943 
407 1 1 23.7845 18.825 22.5461 0.00507704 0.0971296 0.0540496 
408 1 1 21.0397 13.983 23.5522 0.0399009 -0.0357429 -0.114213 
409 1 1 21.5999 14.7856 23.751 -0.0616356 -0.0338004 -0.0188909 
410 1 1 22.1499 15.6183 23.8029 -0.0262078 0.12934 -0.0661594 
411 1 1 23.4175 18.1233 23.0636 0.0388892 0.110861 -0.043075 
412 1 1 23.0322 17.3418 23.4544 0.0306705 0.171055 -0.093364 
413 1 1 22.6026 16.5245 23.7018 0.0187463 -0.100574 0.125099 
414 1 1 25.1747 18.8076 14.6629 -0.104932 0.201138 -0.132797 
415 1 1 24.7735 18.1995 14.2488 -0.0134369 -0.162647 0.0807147 
416 1 1 25.3221 20.5457 17.7609 0.0691911 0.128183 0.0233389 
417 1 1 24.8746 20.6229 18.69 0.0403719 0.0334524 0.0542485 
418 1 1 25.0933 19.4275 15.2863 0.0142422 -0.112106 0.0780459 
419 1 1 24.5556 19.8743 15.9129 -0.0126726 0.0656235 0.0532236 
420 1 1 24.6012 20.3202 16.8176 -0.0865767 0.0437945 0.0946959 
421 1 1 24.3347 17.471 13.9156 0.0377224 0.075204 -0.0162599 
422 1 1 23.7726 16.6694 13.7181 -0.157267 -0.140353 0.116797 
423 1 1 23.2226 15.8356 13.6666 0.12296 -0.0440024 -0.0173442 
424 1 1 22.3617 13.3094 14.3637 0.062739 0.0767909 -0.0763299 
425 1 1 21.7803 12.6341 14.8889 0.043024 -0.0409519 0.0022715 
426 1 1 21.2359 12.0206 15.5566 0.0686373 -0.0368234 -0.0328209 
427 1 1 20.7403 11.5478 16.2844 -0.0795142 -0.0143102 -0.00496976 
428 1 1 20.296 11.1863 17.1013 -0.0883687 -0.00935451 -0.0230325 
429 1 1 18.4475 11.2025 20.7227 0.186757 0.0542561 -0.0183099 
430 1 1 19.864 10.9634 17.9747 -0.171177 0.00118841 -0.0723597 
431 1 1 19.4408 10.8856 18.8765 -0.00185458 -0.158308 -0.125864 
432 1 1 18.9435 10.9699 19.8398 0.0216033 0.0948871 0.078953 
433 1 1 22.6318 14.9628 13.7742 0.0820079 -0.0910831 0.121498 
434 1 1 21.9894 14.1293 14.0444 -0.0632307 0.169025 0.0149776 
435 1 1 24.5172 20.5422 19.5866 -0.0679448 0.0168898 -0.137062 
436 1 1 24.0855 20.3197 20.4592 -0.0883851 -0.0366824 -0.0221559 
437 1 1 23.6395 19.9587 21.2768 0.0395735 -0.00912574 -0.0365261 
438 1 1 17.9278 11.5626 21.5391 0.0294965 0.0278271 -0.0157033 
439 1 1 18.4113 12.0315 22.2458 0.00653048 -0.0217147 0.0202868 
440 1 1 23.2154 19.48 21.9975 -0.149214 0.0623786 0.11238 
441 1 1 18.9211 12.6266 22.8517 0.0867618 0.0599021 -0.14123 
442 1 1 19.4735 13.2874 23.3087 0.154257 -0.100663 0.0903081 
443 1 1 20.0452 14.0344 23.6447 -0.188132 -0.0694255 0.0190109 
444 1 1 22.8151 18.8571 22.6506 0.00714546 0.086481 0.0614562 
445 1 1 20.6059 14.8363 23.8446 0.11104 -0.0686704 0.00233951 
446 1 1 21.1565 15.6699 23.8955 -0.166884 -0.048665 0.00559739 
447 1 1 21.6096 16.5717 23.7952 0.0321414 0.0190358 0.0515717 
448 1 1 22.4319 18.1638 23.1617 0.0461655 -0.174197 -0.0378133 
449 1 1 22.0311 17.3953 23.5472 0.0496341 0.053178 0.0406592 
450 1 1 24.435 18.9082 14.7855 0.0961305 0.0237335 -0.0925324 
451 1 1 23.8665 18.229 14.3236 0.063113 0.12168 -0.0356507 
452 1 1 24.2461 20.5958 17.8329 0.212146 0.134346 0.312741 
453 1 1 23.9457 20.6695 18.7776 -0.0358825 0.0320506 0.0328309 
454 1 1 24.0515 19.4892 15.3932 0.0649482 0.111615 -0.0471994 
455 1 1 23.8336 20.0201 16.1627 0.0121267 0.0616225 0.016182 
456 1 1 23.5933 20.4119 17.022 0.095751 0.0643834 -0.119261 
457 1 1 23.3404 17.522 14.0085 0.0801429 -0.105445 0.127228 
458 1 1 22.7786 16.7192 13.8109 0.0308705 0.0540315 0.0345936 
459 1 1 22.2286 15.8869 13.7589 -0.0796683 0.039021 0.00456568 
460 1 1 21.3762 13.3667 14.4515 -0.11242 -0.161932 0.0501729 
461 1 1 20.7881 12.6872 14.98 0.0964558 0.0686536 0.0477493 
462 1 1 20.2374 12.0744 15.6454 -0.0331933 0.00716414 -0.0775952 
463 1 1 19.7457 11.5994 16.3762 -0.0761053 0.037038 0.165522 
464 1 1 19.3031 11.2375 17.1946 0.114423 0.0316205 0.0104793 
465 1 1 17.4432 11.2553 20.8203 0.0193835 0.00941053 -0.0386954 
466 1 1 17.9465 11.0225 19.939 0.146326 -0.104506 -0.241045 
467 1 1 18.8699 11.0139 18.0671 -0.111004 0.101633 0.0965162 
468 1 1 18.4468 10.9366 18.9683 -0.0528742 -0.10145 0.0132442 
469 1 1 21.6069 14.9893 13.874 -0.0578579 -0.205913 -0.00634574 
470 1 1 20.9892 14.1771 14.1394 0.112865 -0.0453275 0.245474 
471 1 1 23.5238 20.5928 19.6804 0.0234369 0.0307743 0.0610544 
472 1 1 23.0897 20.37 20.5521 -0.0520246 -0.141376 -0.074728 
473 1 1 22.6441 20.0076 21.3702 0.189128 0.00456998 -0.110218 
474 1 1 16.9359 11.6189 21.6432 -0.0533156 -0.164513 0.00528896 