ITEM: TIMESTEP
100000000
ITEM: NUMBER OF ATOMS
57074
ITEM: BOX BOUNDS pp pp pp
0 62
0 62
0 62
ITEM: ATOMS id mol type x y z vx vy vz 
1 1 3 40.2664 36.1657 29.7569 -0.0842678 -0.124849 0.155408
2 1 1 39.6423 36.3003 30.423 -0.00540509 0.000776764 0.0111032
3 1 1 40.0181 35.3818 30.072 0.174256 -0.0670901 0.0512535
4 1 1 39.3204 35.5065 30.7208 0.026097 0.117673 -0.020809
5 1 3 40.6104 35.3941 29.3311 -0.0367928 0.198559 -0.0169408
6 1 1 39.6887 34.6139 30.254 0.0939051 -0.0960898 -0.050254
7 1 1 38.9362 34.5924 30.8137 0.153815 -0.103896 -0.070461
8 1 1 39.9964 36.9804 29.8881 0.118096 0.184652 -0.0391194
9 1 3 39.2822 37.2073 30.5662 -0.179978 -0.0878457 -0.0899221
10 1 1 38.9572 36.4254 31.0046 -0.0110113 -0.0985514 0.00386697
11 1 1 38.5821 35.6255 31.1672 0.129954 0.0108832 0.147718
12 1 1 38.1029 34.9833 31.3167 0.107542 -0.135855 -0.0579054
13 1 3 40.5709 36.7768 29.2024 0.05869 -0.114351 -0.168706
14 1 1 40.7405 36.0371 29.0032 0.0640818 -0.0457784 -0.097308
15 1 1 41.0277 35.5854 28.4724 0.0206437 0.0465392 -0.186661
16 1 1 40.3198 34.6005 29.5305 0.0232311 0.126744 0.00631396
17 1 3 40.8193 34.702 28.7129 -0.0881286 0.0773978 -0.0988149
18 1 1 38.161 34.2207 31.1074 -0.0892115 -0.0138198 -0.0266087
19 1 1 38.5445 33.612 30.7272 0.157851 -0.0292245 0.0654031
20 1 1 39.2058 33.7162 30.2509 -0.00129606 0.0139637 -0.0626713
21 1 3 39.8187 33.8064 29.712 -0.336908 -0.0687682 -0.31203
22 1 1 40.6139 37.3535 28.6607 -0.0185963 -0.066774 0.0527929
23 1 1 40.0682 37.6911 29.3402 0.0847433 0.00440117 -0.0200012
24 1 1 39.4341 37.8454 29.9999 -0.0565722 0.156438 -0.107577
25 1 3 38.761 37.9812 30.4244 0.0877935 -0.100079 -0.0869047
26 1 1 38.4452 37.3336 31.0372 0.198357 0.0565308 -0.0511761
27 1 1 38.0627 36.5932 31.4037 0.0745863 -0.0814248 -0.173598
28 1 1 37.4157 34.4364 31.3985 0.160853 -0.0560969 -0.00551283
29 1 3 37.6055 35.8177 31.6361 0.11376 0.0497167 -0.0216855
30 1 1 37.075 35.1288 31.644 0.0619532 0.156011 -0.0416719
31 1 1 40.995 36.5985 28.3108 -0.103149 0.112788 -0.093585
32 1 1 41.2707 35.7822 27.8234 -0.107569 -0.111727 -0.00425785
33 1 3 41.1836 34.9442 27.8631 -0.0470149 -0.0233134 0.196983
34 1 1 40.4781 33.8821 28.8368 -0.0225172 0.0788207 0.0597585
35 1 1 40.9716 34.1044 27.9915 -0.084338 -0.107668 -0.023423
36 1 1 37.7519 33.7289 31.0862 0.108575 -0.197377 0.115068
37 1 3 37.9726 32.9838 30.5725 0.0280311 0.00589377 0.0541252
38 1 1 36.9565 33.6632 31.2617 0.0925893 0.0905245 0.0727433
39 1 1 38.6625 32.8264 30.1188 0.119957 -0.0810228 0.0741293
40 1 1 39.2436 32.9166 29.6336 0.143242 0.135176 -0.0311316
41 1 3 39.929 33.0297 28.8722 -0.106453 0.12742 -0.0493913
42 1 1 40.7457 37.4612 27.9125 0.0782618 -0.0267044 -0.0707475
43 1 1 40.2789 38.1679 28.0806 -0.0279316 -0.0305015 0.0907733
44 1 1 39.9103 38.2842 28.7457 0.0910532 -0.210972 0.0121065
45 1 3 39.5197 38.3403 29.4465 -0.21035 -0.015133 -0.188119
46 1 1 38.8448 38.6516 29.6737 0.122438 0.0536008 -0.0358601
47 1 1 38.1362 38.6871 30.0778 0.284916 -0.0810504 -0.0972072
48 1 1 37.8613 38.1098 30.7952 -0.0475486 0.145686 0.00636461
49 1 3 37.4679 37.4137 31.343 0.0267911 0.191783 0.051462
50 1 1 37.0987 36.6175 31.683 -0.00820665 0.206604 -0.0109887
51 1 1 36.5709 34.4719 31.5631 0.0872821 -0.000803042 -0.0287312
52 1 1 36.5837 35.8944 31.7492 0.00956494 -0.00553523 -0.0233952
53 1 3 36.3653 35.1811 31.6649 0.108399 0.143856 0.000968743
54 1 1 41.085 37.0104 27.4057 0.0845688 -0.0477179 -0.00213605
55 1 1 40.775 37.7823 26.8823 -0.0418865 0.0763821 0.0829789
56 1 1 41.2822 36.3649 27.3681 0.132573 -0.0803285 0.0966935
57 1 3 41.4045 35.4578 27.153 0.0683909 0.106253 0.070306
58 1 1 41.2686 36.5512 26.4437 0.0142469 0.0954716 -9.29176e-05
59 1 1 41.3048 34.4813 27.1177 -0.0387227 -0.0470787 0.0186528
60 1 1 40.5574 33.2118 28.0884 -0.295992 0.0732943 -0.0334181
61 1 3 40.9599 33.6535 27.2185 -0.0478121 -0.0405335 0.0674162
62 1 1 38.1459 32.3944 30.0909 -0.0833035 0.104934 -0.00382267
63 1 1 37.2095 32.9562 30.8546 -0.0766447 0.0167843 0.0653642
64 1 1 37.412 32.2725 30.295 0.0902905 -0.0116017 0.0742528
65 1 3 36.1168 33.9777 31.3408 0.0137242 -0.0919645 0.00133448
66 1 1 36.3838 33.107 30.9861 -0.0890621 0.130335 -0.00346343
67 1 1 38.5968 32.2194 29.5115 0.0109524 0.025093 -0.100903
68 1 1 39.2728 32.2906 28.8334 0.148219 0.12555 -0.0495648
69 1 3 39.9209 32.4891 28.0521 0.269242 -0.0382536 0.100956
70 1 1 40.3785 38.1691 27.4322 -0.0211114 -0.133293 0.0601459
71 1 1 39.8264 38.7218 27.9326 -0.0271729 -0.0249038 -0.101206
72 1 1 39.1153 39.1028 28.7934 0.101624 -0.0261691 -0.0413247
73 1 3 38.272 39.2954 29.3106 -0.109246 0.137637 -0.0688632
74 1 1 37.5393 39.3434 29.7372 0.0377246 0.020869 0.0850826
75 1 1 37.2151 38.8153 30.4484 0.0657289 0.0896313 -0.101458
76 1 1 36.8927 38.1117 31.0625 -0.0798616 -0.193663 -0.0807071
77 1 3 36.5551 37.3151 31.5624 0.0351272 -0.0903444 0.0502609
78 1 1 36.0731 36.6334 31.7142 -0.0690012 -0.199523 -0.133234
79 1 1 35.7522 34.8592 31.5651 0.0077791 0.0722085 0.0271108
80 1 1 35.5801 35.8203 31.7041 0.120763 -0.158045 -0.0215428
81 1 3 35.1958 34.1874 31.2588 -0.177216 0.117456 -0.113672
82 1 1 40.2141 38.5365 26.4525 0.176277 0.0713145 -0.115595
83 1 1 41.0665 37.2792 26.3511 0.0263814 -0.00339685 0.099742
84 1 1 40.6485 37.9489 26.12 -0.203115 0.106423 0.00595494
85 1 3 41.4059 35.9914 26.4126 -0.0295714 -0.106639 0.00973667
86 1 1 41.3709 35.0456 26.287 0.00276858 -0.21461 0.0585502
87 1 1 41.139 36.5055 25.7233 0.145395 0.14784 -0.102522
88 1 1 41.1124 33.9937 26.3383 -0.0604667 -0.054906 0.0767534
89 1 3 40.4366 32.7863 27.2099 0.0534501 -0.050115 0.134187
90 1 1 40.7634 33.2611 26.262 0.118886 -0.0425327 0.115338
91 1 1 37.8919 31.6571 29.5345 0.0636437 -0.0157544 -0.0111477
92 1 1 36.6126 32.3051 30.4728 0.0975088 0.0549349 -0.0329025
93 1 3 36.9463 31.6621 29.7797 -0.0631466 -0.173289 0.0416943
94 1 1 35.5501 33.3343 31.0133 -0.0512086 -0.041347 0.0442695
95 1 1 35.8677 32.4582 30.601 0.203577 -0.108074 0.101758
96 1 1 38.5801 31.5934 28.7409 -0.14489 -0.0125606 0.0128043
97 1 3 39.2996 31.7784 28.0431 0.122177 -0.0429125 0.0157137
98 1 1 39.9126 32.1355 27.0956 0.0309096 0.108772 -0.0851365
99 1 1 39.789 38.9555 27.0861 0.0518142 -0.004639 0.193576
100 1 1 39.1337 39.4852 27.6941 0.0182666 0.00379151 0.183313
101 1 3 38.4355 39.807 28.2473 -0.0479475 -0.164362 0.170232
102 1 1 37.5986 39.8636 28.7643 -0.0596603 0.118163 0.0265858
103 1 1 36.8294 39.3432 30.0644 -0.0645454 0.224076 -0.14437
104 1 1 36.9469 39.7999 29.4623 0.0699166 -0.0647621 -0.053064
105 1 3 36.2428 38.939 30.5546 0.171321 0.119126 0.0427716
106 1 1 35.9656 37.9606 31.1445 -0.0526524 -0.0737404 -0.0609679
107 1 1 35.5236 37.2975 31.4591 0.0317929 0.00496105 0.127886
108 1 1 35.2155 36.7119 31.589 -0.190791 -0.0113423 -0.050583
109 1 3 34.5972 33.5658 30.9691 0.00360496 0.0308991 -0.0416346
110 1 1 34.9022 35.1458 31.4186 0.0164312 0.0590078 -0.0186699
111 1 1 34.7275 36.1937 31.4986 -0.151836 0.0724044 0.0248357
112 1 1 34.265 34.468 31.1613 -0.00503648 0.0993553 0.0431344
113 1 3 40.2221 38.2947 25.5565 0.0559774 0.132144 0.183437
114 1 1 39.7234 38.9553 26.1084 0.349394 -0.00990048 0.0504524
115 1 1 40.6928 37.4569 25.2882 -0.0532949 -0.0898392 -0.069055
116 1 1 40.1326 37.9363 24.7077 0.0168008 -0.105844 -0.0368865
117 1 3 41.2301 35.6146 25.442 -0.0626237 -0.146371 -0.0700118
118 1 1 41.0847 34.6094 25.4276 0.0270602 0.0188943 -0.100317
119 1 1 40.8116 36.3641 24.8369 -0.00259758 0.087925 0.120507
120 1 1 40.7884 33.6294 25.3841 -0.0226897 -0.0394629 0.000520911
121 1 3 40.258 32.5067 26.198 0.0281666 -0.104063 0.10088
122 1 1 40.392 33.0141 25.2463 -0.127158 0.00465399 0.149454
123 1 1 37.8073 31.1051 28.5784 -0.123316 0.110666 -0.142986
124 1 1 37.2625 31.2076 29.1325 -0.0473566 0.063402 0.040606
125 1 3 36.2034 31.7756 29.9674 0.0629001 -0.141445 -0.0861903
126 1 1 36.6158 31.1393 29.213 0.144952 0.06091 0.140896
127 1 1 34.8852 32.7287 30.6195 0.0677318 -0.133947 -0.0894653
128 1 1 35.1633 32.0057 30.1954 0.139462 -0.217039 -0.203877
129 1 3 34.0152 33.068 30.6539 -0.155341 0.0714811 0.0986694
130 1 1 39.7202 31.827 26.1909 0.00578598 -0.174759 0.131814
131 1 1 38.5079 31.1645 27.938 0.0747412 -0.0109751 -0.122277
132 1 1 39.2467 31.4181 26.9436 -0.0583577 -0.0588241 0.0145423
133 1 3 39.1639 39.5209 26.6574 0.0626768 -0.0248217 -0.0757901
134 1 1 38.4958 39.9587 27.3173 -0.22598 0.101523 -0.0551655
135 1 1 36.7241 40.1316 28.8365 0.366698 0.0138649 -0.162018
136 1 1 37.7613 40.1592 27.8582 0.201132 0.0196641 -0.153367
137 1 3 36.988 40.3057 28.1479 -0.0903624 0.0531968 0.175505
138 1 1 36.1465 39.6868 29.8061 -0.0923823 -0.0166877 -0.0737114
139 1 1 36.202 40.0859 29.0731 0.00563889 -0.0350304 -0.120483
140 1 1 35.292 39.2406 30.1688 -0.00123359 0.0152293 0.127127
141 1 3 35.2375 38.4528 30.7751 -0.0310723 -0.0217108 -0.022388
142 1 1 35.2089 37.8122 31.1654 0.0536878 -0.156705 0.134877
143 1 1 34.5043 37.1538 31.2626 -0.0485227 -0.0117445 0.0273113
144 1 1 33.6546 33.889 30.9009 0.0618372 -0.100394 -0.0573468
145 1 3 34.1361 35.5688 31.2897 -0.0459823 -0.0931244 0.0281489
146 1 1 34.0398 36.2489 31.2406 -0.221477 0.00681422 -0.0280781
147 1 1 33.4367 34.767 31.0835 -0.00302542 -0.0659213 0.141511
148 1 1 39.6496 38.6889 25.1197 -0.0152395 0.0194193 0.0496986
149 1 3 39.0028 39.3983 25.6745 -0.00861607 0.103676 -0.089872
150 1 1 40.3148 36.9935 24.2996 0.054268 0.015627 -0.0187572
151 1 1 39.4035 38.399 24.4291 -0.0680937 -0.121954 0.0430845
152 1 1 39.6065 37.5638 23.8428 0.000306761 0.048614 0.10249
153 1 3 40.9044 35.3489 24.5779 -0.0319683 0.0480754 -0.0392579
154 1 1 40.7005 34.308 24.5987 -0.00938337 -0.0715015 -0.144105
155 1 1 40.474 35.9635 24.097 -0.127536 -0.0398697 0.0654572
156 1 1 40.3026 33.3459 24.4752 -0.138393 -0.00739534 0.0128189
157 1 3 39.8967 32.2476 25.3885 -0.0970063 0.0229313 0.0248559
158 1 1 39.9501 32.726 24.738 0.111995 0.0597685 -0.029672
159 1 1 37.7187 30.8167 27.8865 0.0277015 0.0444608 0.0512469
160 1 1 36.9086 30.7445 28.3925 0.0814091 0.151429 -0.0210433
161 1 3 35.9768 30.895 28.8042 -0.126323 0.0388831 0.045119
162 1 1 35.5362 31.3323 29.4207 0.223072 0.0314888 -0.00335428
163 1 1 34.2779 32.2322 30.1854 -0.0819562 0.0454439 -0.0159207
164 1 1 34.6246 31.7023 29.7923 0.089904 0.15561 -0.0276183
165 1 3 33.1092 33.2075 30.5322 -0.121044 0.119078 0.102765
166 1 1 33.6242 32.6258 30.2959 -0.117627 0.0878235 -0.00726176
167 1 1 39.1686 31.386 26.0386 -0.029836 -0.0847658 -0.0112418
168 1 1 39.3799 31.7061 25.3007 -0.149823 0.0918931 0.0281947
169 1 3 38.1777 30.8432 27.1965 -0.290674 -0.0884945 -0.239337
170 1 1 38.4938 30.9682 26.3357 -0.000309636 0.0363102 -0.0139543
171 1 1 38.3231 39.9601 26.26 0.0192476 -0.0962569 -0.163841
172 1 1 37.6842 40.2849 26.7843 -0.0371378 0.109768 -0.0309427
173 1 3 36.2259 40.3772 28.3411 -0.0665711 0.0355573 0.0470343
174 1 1 36.9789 40.4966 27.176 -0.0925374 0.00756809 -0.0065547
175 1 1 36.3885 40.5502 27.6964 0.0788998 0.123399 -0.0303017
176 1 1 35.4835 40.2394 28.5383 -0.0887723 0.0616473 0.148381
177 1 3 35.4093 39.8279 29.42 -0.00876767 -0.0372541 0.101315
178 1 1 34.5475 39.4298 29.6649 0.13001 0.0188762 -0.131902
179 1 1 34.4796 38.6695 30.3728 0.0966347 -0.113187 -0.0454781
180 1 1 34.4177 37.8867 30.8614 0.05391 0.0543562 -0.0411534
181 1 3 33.7084 37.4688 30.7871 -0.0255421 -0.007249 0.0212278
182 1 1 33.56 36.8101 30.9869 0.109946 0.0867697 0.0350521
183 1 1 32.7499 34.174 30.8376 0.0670152 -0.031395 0.14259
184 1 1 32.3911 33.3406 30.4864 -0.157989 -0.0470988 -0.288162
185 1 3 33.219 35.7917 31.0596 -0.05914 -0.041194 -0.102951
186 1 1 32.6883 35.0108 30.8849 0.154605 0.249478 -0.0522175
187 1 1 38.8074 39.1222 24.793 -0.0886281 -0.196283 0.00149283
188 1 1 38.2042 39.7215 25.2063 0.120053 0.0316696 0.00292383
189 1 3 39.9504 36.5612 23.6231 0.0670789 0.0815225 -0.124601
190 1 1 39.2836 36.8866 23.2378 0.110945 -0.114149 0.0918399
191 1 1 38.7096 38.7291 24.0934 0.0717758 -0.0323853 -0.0762413
192 1 1 38.943 38.1918 23.8577 -0.139683 0.0852072 0.0288947
193 1 3 38.8984 37.6047 23.2666 -0.193318 0.0942512 -0.14146
194 1 1 40.3771 34.903 23.8417 -0.0633922 -0.141919 0.0597577
195 1 1 40.1319 33.9854 23.7494 -0.095618 -0.0625742 -0.114174
196 1 1 39.9287 35.456 23.338 -0.213654 0.0133813 -0.0542194
197 1 3 39.6219 32.9014 23.8616 -0.10777 0.147531 -0.0683905
198 1 1 39.4507 32.1817 24.4994 0.0742329 -0.0174184 -0.0491431
199 1 1 37.2842 30.6036 27.4307 0.0987645 0.115086 0.0247592
200 1 1 36.6377 30.5474 27.4845 0.009508 -0.000232203 0.076897
201 1 3 36.0229 30.5821 28.1548 -0.0692875 -0.0815809 -0.080721
202 1 1 35.2386 30.8473 28.6397 -0.0289312 0.0145087 -0.105834
203 1 1 34.4786 31.2356 29.1257 -0.076259 -0.0784502 -0.129527
204 1 1 33.5881 31.7527 29.7324 -0.0226249 0.209773 -0.0664481
205 1 3 32.7432 32.3865 29.9967 -0.114987 -0.0916675 -0.125633
206 1 1 38.6229 31.1278 25.4436 0.0769025 -0.111603 0.0205665
207 1 1 38.7343 31.5676 24.5925 -0.0261184 -0.0386971 0.0931926
208 1 1 37.5973 30.6289 26.5833 -0.0145627 -0.163924 0.0957727
209 1 3 37.8885 30.7972 25.6447 0.124428 0.108162 0.0201059
210 1 1 37.495 40.1215 25.8122 0.0780646 0.139071 0.0552687
211 1 1 36.8599 40.3718 26.2707 -0.00243138 -0.0803462 -0.349451
212 1 1 35.6394 40.5451 27.66 0.0227378 -0.0869069 -0.0678649
213 1 3 36.058 40.57 26.7523 -0.0932339 0.0465285 0.072596
214 1 1 34.7661 40.3062 27.9527 -0.0090251 0.0888725 -0.0242641
215 1 1 34.68 39.9378 28.9166 0.22743 0.0394347 -0.0816238
216 1 1 31.8203 32.8771 30.1296 -0.0159636 -0.073189 0.118194
217 1 3 31.744 33.8218 30.4725 -0.0828585 0.0542525 -0.0918682
218 1 1 33.8826 39.6138 29.0604 -0.165825 -0.0227231 7.98586e-05
219 1 1 33.6898 38.9918 29.7627 -0.126017 -0.132313 -0.0397953
220 1 1 33.5564 38.1902 30.339 0.0525884 0.067345 -0.0848075
221 1 3 32.9489 37.3047 30.5767 -0.0891974 0.0455388 -0.124566
222 1 1 32.5562 36.5177 30.7173 -0.13986 -0.0252731 -0.0125983
223 1 1 31.9476 34.7862 30.6075 0.0589949 -0.0682729 -0.0270796
224 1 1 32.2005 35.6039 30.7138 0.0382697 0.0795302 -0.138436
225 1 3 37.2388 39.9668 24.9704 0.00616914 0.0242886 0.173679
226 1 1 37.9208 39.3153 24.2519 0.0905464 0.110377 -0.0298823
227 1 1 39.384 36.0303 22.9415 -0.184926 0.109281 0.0350284
228 1 1 38.8368 36.5273 22.6991 -0.0257754 0.0918799 -0.0447363
229 1 3 38.5526 37.1772 22.7634 0.222767 -0.052967 0.0545895
230 1 1 38.1205 38.5857 23.5923 -0.0857596 0.0580706 -0.000493967
231 1 1 38.3652 37.9191 23.1604 0.0220949 -0.0862093 0.13138
232 1 1 39.6994 34.5576 23.0998 -0.0809399 -0.171426 0.268269
233 1 3 39.4123 33.6414 22.9941 0.0947629 -0.017737 -0.146891
234 1 1 39.2034 35.1328 22.7551 0.0603351 -0.0573267 0.00171085
235 1 1 38.9809 32.8906 23.0386 -0.0680762 -0.100832 -0.0352166
236 1 1 38.9222 32.0913 23.8334 -0.0326446 0.039275 -0.141834
237 1 3 36.719 30.4928 26.8044 0.099933 -0.0127595 -0.222945
238 1 1 35.7953 30.3515 27.1281 0.0581926 0.101608 0.0769598
239 1 1 35.1531 30.4723 27.861 -0.000768505 0.188679 -0.00997891
240 1 1 34.3036 30.8053 28.3925 -0.0139487 0.0438595 0.00392026
241 1 3 33.4834 31.134 28.9514 0.126796 -0.0561891 -0.0332712
242 1 1 32.5971 31.561 29.3965 0.0498661 0.0619945 -0.23174
243 1 1 31.7331 32.0873 29.6936 -0.122953 -0.0951012 -0.0729677
244 1 1 37.9981 31.1126 24.7467 -0.120482 -0.0974489 -0.020866
245 1 3 38.0523 31.6139 23.8781 -0.216006 0.058824 0.0685799
246 1 1 36.9621 30.5557 25.8535 -0.120649 -0.0235819 0.0514591
247 1 1 37.2158 30.7669 24.9987 -0.0260528 0.000122581 -0.185674
248 1 1 36.5425 40.2304 25.5168 0.0521668 -0.0301072 -0.0249118
249 1 3 36.1065 40.4347 25.926 -0.0225552 0.0135653 0.108093
250 1 1 34.9754 40.4927 26.9832 -0.182104 0.086906 -0.0734418
251 1 1 35.3088 40.4633 26.0637 0.0435395 -0.101242 -0.0991897
252 1 1 34.1043 40.1809 27.2566 0.00330526 -0.15195 0.0245457
253 1 3 34.0279 39.9765 28.1801 0.231941 -0.0643927 -0.0300509
254 1 1 30.9083 32.6401 29.8553 0.129652 -0.0925904 -0.147318
255 1 1 31.0364 33.4526 30.1522 -0.0796144 -0.00231577 0.0679291
256 1 1 31.0326 34.4491 30.3321 0.0394497 0.0818256 -0.181891
257 1 3 33.2417 39.6535 28.4044 -0.00946988 -0.142038 -0.118407
258 1 1 33.0524 39.2391 29.1053 -0.139083 -0.0297927 -0.145049
259 1 1 32.989 38.6678 29.6569 -0.20882 -0.00297279 0.112202
260 1 1 32.4427 37.9308 29.9747 0.0259808 -0.138677 0.0955903
261 1 3 31.9989 37.2417 30.2172 -0.0974814 -0.143039 0.0181496
262 1 1 31.6655 36.3368 30.4468 -0.194886 0.104839 -0.12658
263 1 1 31.3326 35.4548 30.401 0.0764653 0.132947 -0.0203877
264 1 1 36.5153 40.0217 24.737 0.0284148 -0.0804086 0.0140178
265 1 3 36.8757 39.6586 24.1939 -0.0265252 -0.0132373 -0.0286
266 1 1 37.2796 38.9933 23.571 -0.0298954 -0.0589034 -0.0518257
267 1 1 38.5449 35.6456 22.3426 -0.125843 -0.0873756 -0.0577635
268 1 1 38.1171 36.6177 22.3654 0.0929776 -0.135192 0.0697718
269 1 3 37.849 37.4933 22.6221 -0.0529587 -0.160986 0.070733
270 1 1 37.5762 38.2645 23.0282 0.152917 0.146757 -0.057986
271 1 1 38.9142 34.2657 22.5076 -0.0925074 0.100004 0.0952261
272 1 1 38.7617 33.5106 22.5776 -0.0214503 0.0892744 0.129913
273 1 3 38.4961 34.793 22.2881 0.229896 2.82712e-05 0.118866
274 1 1 38.242 33.0372 22.5565 0.118338 0.0557863 -0.0796158
275 1 1 38.2727 32.2669 23.1428 0.120299 0.05131 0.141497
276 1 1 36.0839 30.336 26.0535 0.0428979 0.045355 0.111708
277 1 3 35.3408 30.1924 26.195 0.061684 0.0287058 -0.0517243
278 1 1 34.8097 30.1832 26.8886 0.0358339 0.0638158 -0.156497
279 1 1 34.2036 30.3413 27.4712 -0.125096 -0.0498248 0.175096
280 1 1 33.4288 30.6205 28.1598 -0.060252 -0.0068165 -0.0178769
281 1 3 32.6216 30.9542 28.6786 0.130629 0.0460853 -0.0994894
282 1 1 31.7719 31.3641 29.1069 -0.127947 0.040958 -0.0745538
283 1 1 30.8267 31.8042 29.392 0.1331 -0.118149 0.00872063
284 1 1 37.281 31.1609 24.1864 0.124367 -0.0243831 0.0184003
285 1 3 37.4221 31.6334 23.3246 -0.0292464 -0.0126297 -0.134682
286 1 1 36.3883 30.4518 25.2168 -0.0139193 -0.0322864 0.0988619
287 1 1 36.5606 30.7541 24.3389 -0.150042 -0.0245375 -0.107547
288 1 1 35.6933 40.217 25.1938 0.0563684 -0.0539253 -0.0173945
289 1 3 34.5503 40.299 26.3454 0.0755718 0.0223006 0.0290594
290 1 1 34.8198 40.2192 25.6227 0.267147 -0.141542 -0.181757
291 1 1 29.9404 32.4056 29.6253 0.0898349 -0.0981944 0.0929708
292 1 1 33.595 40.0544 26.4587 -0.233533 0.16647 -0.186598
293 1 3 33.3546 39.9087 27.4778 0.0301835 -0.0265359 0.0405195
294 1 1 30.0702 33.251 29.9383 0.0561786 -0.0563907 -0.0208106
295 1 1 30.2361 34.1783 30.1274 0.173648 -0.103446 0.0409777
296 1 1 30.4605 35.095 30.1319 -0.0732663 -0.133687 0.101883
297 1 3 32.5039 39.6131 27.7337 0.185861 -0.165116 -0.144014
298 1 1 32.6102 39.3531 28.5064 -0.164123 0.0106815 -0.00594121
299 1 1 32.1224 38.7202 29.2483 -0.0819077 0.117973 -0.21029
300 1 1 31.4952 37.8883 29.5807 0.0310701 -0.0156652 -0.234992
301 1 3 31.1248 37.0178 29.8808 -0.0789285 -0.013434 0.0316192
302 1 1 30.7503 36.1344 30.0688 0.113381 0.0559864 0.0242857
303 1 1 36.6752 38.5184 22.9865 -0.0787381 0.00676956 -0.0445846
304 1 1 35.9738 39.7769 24.3964 0.0357948 0.0453235 0.00936433
305 1 3 36.3711 39.192 23.6573 0.188359 -0.0488453 -0.0870078
306 1 1 37.8019 34.9893 22.0591 0.097145 0.097582 0.0750097
307 1 1 37.6354 35.9269 22.0037 0.271685 0.0494209 -0.0880733
308 1 1 37.3765 36.8952 22.1989 0.026011 -0.0661541 -0.141292
309 1 3 36.9861 37.7724 22.5078 -0.18455 0.00788959 -0.0284491
310 1 1 38.0588 34.0178 22.1653 0.0667592 -0.0248499 -0.00557303
311 1 1 37.5182 33.1934 22.1944 -0.105702 -0.0122494 0.0276034
312 1 1 37.4305 32.3574 22.5845 0.0518937 -0.0999981 -0.190708
313 1 3 35.4474 30.2111 25.2841 -0.157453 -0.264725 0.111215
314 1 1 34.6521 30.0142 25.8989 0.105259 -0.15321 -0.0707702
315 1 1 33.9815 30.022 26.6273 0.0666793 0.00959849 -0.100328
316 1 1 33.2758 30.1767 27.2526 0.0348118 -0.0449224 -0.0910246
317 1 3 32.5475 30.4162 27.9144 -0.0161832 0.188473 0.0158576
318 1 1 31.7129 30.7172 28.3557 0.144329 0.0109482 0.127139
319 1 1 30.8174 31.1408 28.7714 -0.187876 0.0540056 -0.0542991
320 1 1 29.8859 31.6099 29.1466 0.0282053 0.103752 -0.138806
321 1 3 36.6531 31.1809 23.5148 -0.0812832 -0.0966773 0.107064
322 1 1 36.7846 31.6276 22.9626 -0.0814414 0.0124437 -0.112668
323 1 1 35.7511 30.4587 24.4165 0.0247726 0.0467493 -0.0894266
324 1 1 36.0647 30.809 23.7681 0.0154783 -0.066291 -0.0127281
325 1 3 35.1532 39.7614 24.425 0.0635889 -0.049457 -0.144247
326 1 1 34.7436 39.9548 24.9071 0.0226045 -0.0705077 0.0604216
327 1 1 33.8711 40.0529 25.5483 -0.0963824 -0.119115 0.127541
328 1 1 32.9707 39.9192 26.0197 -0.0996592 0.188399 0.182462
329 1 3 29.0069 32.1548 29.3188 -0.197259 -0.0545023 -0.0761731
330 1 1 29.1177 33.0448 29.693 0.0190564 -0.163198 0.039026
331 1 1 32.7589 39.7792 26.8229 0.00904554 -0.056213 -0.112654
332 1 1 29.2989 34.0206 29.8672 0.0263525 0.0668426 -0.131555
333 1 3 29.4832 34.8759 29.9404 -0.100429 -0.0799244 0.164852
334 1 1 29.8458 35.8694 29.8372 -0.0333196 0.176961 0.0154655
335 1 1 31.911 39.4963 27.2569 -0.256793 0.0234957 0.103058
336 1 1 31.719 39.1632 28.2081 0.0723371 0.0877039 -0.112391
337 1 3 31.1182 38.4373 28.8376 -0.0298391 -0.0589048 -0.175599
338 1 1 30.6562 37.648 29.2958 0.0159496 0.0971878 0.214547
339 1 1 30.1567 36.825 29.6324 -0.161754 -0.134911 -0.0279349
340 1 1 37.2734 34.6287 21.864 -0.123795 -0.0215466 -0.137666
341 1 3 36.1116 37.9288 22.4115 -0.110828 0.00442975 -0.0154528
342 1 1 35.7666 38.6258 22.9971 -0.0156887 -0.0204824 -0.0996789
343 1 1 35.3611 39.2813 23.7118 -0.0351143 -0.112418 0.0181618
344 1 1 37.0141 35.3783 21.7952 0.194628 -0.166488 0.043258
345 1 3 36.682 36.2586 21.787 0.0144747 -0.051235 0.0141316
346 1 1 36.4804 37.1399 22.0061 0.0283689 0.164245 -0.13373
347 1 1 35.6078 37.4655 21.9312 0.0411704 0.00441033 0.0331607
348 1 1 37.1429 33.7978 21.9109 0.00353172 -0.0395862 -0.156738
349 1 3 36.823 33.0115 22.0236 -0.0591893 -0.060756 -0.0373342
350 1 1 36.3646 32.1808 22.308 0.129473 -0.0844283 0.0157433
351 1 1 35.0019 30.2289 24.5359 0.163822 0.0299978 -0.000873941
352 1 1 34.4079 30.0029 25.0815 -0.0210193 -0.0423052 -0.144343
353 1 3 33.7371 29.7992 25.7094 0.0264361 -0.00888526 -0.126538
354 1 1 33.0735 29.8396 26.2945 0.148416 0.0586798 0.00595372
355 1 1 32.3624 29.9376 27.0388 -0.134285 -0.117102 0.102492
356 1 1 31.6407 30.1629 27.5879 -0.0238929 -0.0276899 -0.132843
357 1 3 30.7879 30.4724 27.9993 0.151113 0.0436085 -0.0215829
358 1 1 29.9365 30.8834 28.4909 -0.0575352 -0.011696 -0.0886565
359 1 1 29.0032 31.4117 28.8544 -0.141573 0.103534 -0.0541681
360 1 1 35.8936 31.332 22.8275 -0.030512 -0.0942344 0.0827922
361 1 3 35.1778 30.6196 23.5113 0.0767179 -0.0982637 -0.0362378
362 1 1 34.454 39.5265 24.1318 0.00102678 0.200414 -0.150191
363 1 1 33.761 39.7566 24.5695 0.0711121 0.0174826 0.251292
364 1 1 32.8669 39.7858 25.1233 -0.11543 0.0628013 0.0397848
365 1 3 32.2998 39.7808 25.9271 0.0520718 -0.147866 0.0116568
366 1 1 28.0809 31.974 28.9907 0.0182422 -0.167265 -0.0981096
367 1 1 28.2113 32.8031 29.4199 0.0019022 -0.176413 -0.193952
368 1 1 28.384 33.8249 29.6397 -0.0398571 -0.0387237 0.0418645
369 1 3 31.6979 39.5197 26.5033 0.0715621 -0.123762 0.248335
370 1 1 28.575 34.7125 29.6962 -0.105054 0.106499 0.12609
371 1 1 28.9158 35.6251 29.5429 0.128983 0.11034 -0.00963336
372 1 1 29.2655 36.5566 29.3195 -0.182457 -0.0112115 0.0709483
373 1 3 31.1166 39.2774 27.2559 0.116713 -0.0198384 0.0635594
374 1 1 30.7223 38.8244 27.9449 0.212945 -0.0261806 0.00193341
375 1 1 30.2277 38.1948 28.5035 -0.05709 -0.0637025 0.108456
376 1 1 29.7301 37.4712 28.9728 0.0157489 0.11632 -0.024922
377 1 3 36.4398 34.6151 21.6287 0.00595846 -0.145214 -0.0866317
378 1 1 35.2255 38.1716 22.3899 0.0242576 -0.0879953 -0.0788928
379 1 1 35.0285 38.6771 22.9268 0.0323964 -0.0270305 0.141182
380 1 1 34.3391 38.9797 23.2365 0.0484251 -0.20267 0.0297847
381 1 3 36.0997 35.5935 21.557 0.106659 -0.0270601 -0.124411
382 1 1 35.8587 36.4963 21.6691 0.20559 -0.0197514 -0.123029
383 1 1 35.0032 36.9096 21.5702 -0.158566 -0.10974 -0.154594
384 1 1 34.9097 37.6279 21.889 0.0901034 0.0170843 0.0183997
385 1 3 36.1944 33.6209 21.6629 0.0966773 0.022398 -0.0716102
386 1 1 35.849 32.6972 21.8588 -0.0827802 -0.0344054 0.0430165
387 1 1 35.4642 31.8493 22.1023 -0.0855623 0.0733699 -0.0134071
388 1 1 34.4167 30.2068 24.1509 0.205129 0.107346 -0.211006
389 1 3 33.6463 29.8243 24.7469 -0.0768942 0.0892193 -0.0381921
390 1 1 32.9014 29.5964 25.4022 0.055811 0.0251932 -0.0824924
391 1 1 32.1454 29.591 26.1078 -0.0109328 -0.0331543 -0.0667814
392 1 1 31.404 29.6336 26.7306 0.0454418 -0.103556 0.123892
393 1 3 30.6087 29.928 27.2662 0.087121 -0.0515116 -0.212088
394 1 1 29.8244 30.2452 27.7026 -0.186471 -0.0462273 0.0174897
395 1 1 28.9906 30.6678 28.2318 -0.108553 0.152733 0.181516
396 1 1 28.1272 31.1271 28.5611 0.066235 -0.224681 -0.10999
397 1 3 34.9029 31.0566 22.5886 -0.0652414 0.0186394 -0.00725886
398 1 1 34.2543 30.5303 23.1903 -0.0557487 0.01519 0.020794
399 1 1 33.6385 39.3205 23.6989 0.0311028 -0.0430451 -0.0292843
400 1 1 32.8125 39.5942 24.2052 0.0916055 -0.116339 -0.105273
401 1 3 32.1251 39.6497 24.9534 0.00122936 -0.194468 0.0155053
402 1 1 27.2227 31.7452 28.6966 -0.0654069 -0.0585964 0.00489805
403 1 1 31.4487 39.4892 25.5926 0.0200783 -0.0232121 0.062147
404 1 1 27.2591 32.6387 29.0935 0.0765233 -0.0295552 -0.0456184
405 1 3 27.3701 33.568 29.3653 0.0261162 -0.0763769 0.0615923
406 1 1 27.6663 34.5173 29.4261 0.132348 -0.0555333 0.0166937
407 1 1 30.7878 39.2818 26.275 0.05619 0.11254 0.0249869
408 1 1 27.9339 35.4826 29.2868 0.0587179 0.0915098 -0.0604924
409 1 3 28.3715 36.3449 29.0847 -0.222041 -0.0231309 -0.0339481
410 1 1 28.8215 37.2258 28.7639 -0.0156061 -0.02329 0.0416895
411 1 1 30.2942 39.0045 27.0626 0.0483888 -0.0957407 0.0231387
412 1 1 29.7924 38.5968 27.6652 -0.120616 -0.0523049 -0.054625
413 1 3 29.2578 37.9956 28.1612 0.0330336 0.00894107 0.0418284
414 1 1 35.6349 35.0818 21.3764 -0.0288922 -0.102848 0.0740219
415 1 1 35.4151 34.25 21.356 0.311164 -0.0486561 0.0742936
416 1 1 34.2353 38.3127 22.3679 -0.00214252 -0.0382645 0.0194043
417 1 3 33.397 38.8069 22.8515 0.104467 -0.0561386 -0.0415431
418 1 1 35.1674 35.9175 21.3465 0.111203 0.00904744 -0.045315
419 1 1 34.4196 36.4614 21.309 0.0867613 -0.096415 -0.0205788
420 1 1 34.0144 37.3266 21.6557 0.0675862 0.316826 -0.115281
421 1 3 35.3061 33.3706 21.4467 -0.0271471 0.0497584 0.0327417
422 1 1 34.9523 32.462 21.574 0.0530042 -0.042643 -0.0939646
423 1 1 34.5669 31.6154 21.8738 -0.0480141 0.138903 -0.0978749
424 1 1 33.558 30.0698 23.8315 0.214416 0.0930666 -0.0379395
425 1 3 32.7571 29.6851 24.4013 -0.0683843 -0.0862163 -0.0235185
426 1 1 32.0434 29.4323 25.19 -0.0324155 0.0555664 0.129712
427 1 1 31.2191 29.2629 25.7907 0.0459931 0.12295 0.038622
428 1 1 30.4414 29.3661 26.4844 -0.102843 -0.0563171 0.0340904
429 1 3 27.1479 30.938 28.2205 0.0560924 0.0178382 0.174438
430 1 1 29.6723 29.6672 27.004 0.209628 0.181175 -0.135762
431 1 1 28.8007 30.031 27.5271 -0.00629705 -0.131624 0.142245
432 1 1 28.0035 30.4415 27.9685 0.0524332 0.109712 0.169853
433 1 3 33.9452 30.9166 22.3178 0.0274984 0.0350572 0.0470431
434 1 1 33.2738 30.2869 22.9871 0.120385 -0.094491 -0.145776
435 1 1 32.7062 39.2069 23.3339 -0.00909079 -0.105976 -0.0330304
436 1 1 31.884 39.4225 24.0653 -0.0144802 -0.0606644 0.0504628
437 1 3 31.1543 39.4077 24.6962 0.0987579 0.137554 0.0419287
438 1 1 26.2577 31.5588 28.421 -0.0185131 -0.0258385 0.0154555
439 1 1 26.3525 32.4292 28.7993 0.0373559 0.016244 -0.0534944
440 1 1 30.4643 39.2884 25.317 -0.0493943 -0.00187175 -0.0152757
441 1 3 26.4904 33.3804 29.0719 0.0250851 -0.0356549 -0.0490679
442 1 1 26.7204 34.2868 29.1976 -0.136633 0.11396 0.165821
443 1 1 27.0228 35.1831 29.0866 -0.110201 -0.0185107 -0.119537
444 1 1 29.9072 39.0721 26.1107 -0.0162116 -0.000305533 0.00575135
445 1 3 27.4252 36.1608 28.7958 -0.0809159 0.00569526 0.142999
446 1 1 27.9727 37.0382 28.5058 -0.107838 -0.00177083 0.129985
447 1 1 28.2815 37.7955 27.8746 -0.0944629 0.0195422 0.0369183
448 1 1 29.2956 38.734 26.7411 -0.0787617 0.0771194 -0.0239322
449 1 3 28.8426 38.3589 27.3655 -0.143196 -0.0398338 -0.119597
450 1 1 34.9146 35.082 21.1689 -0.0516073 0.108788 -0.00537863
451 1 1 34.6021 34.0241 21.0754 -0.0378227 0.00121741 -0.110772
452 1 1 33.2293 38.0495 22.0986 0.0690204 0.0898246 -0.0870172
453 1 3 32.5659 38.586 22.512 -0.019423 -0.098486 -0.0881461
454 1 1 34.2339 35.7009 21.0558 -0.0254088 0.00576814 -0.00537613
455 1 1 33.6858 36.4658 21.1951 0.118091 -0.01399 0.0664407
456 1 1 33.0279 37.2622 21.5095 -0.110899 -0.00670124 -0.0549819
457 1 3 34.4144 33.0815 21.1748 -0.172186 0.0552628 -0.119419
458 1 1 33.9402 32.3079 21.2863 0.0445898 0.132496 -0.0444897
459 1 1 33.5175 31.4906 21.6182 0.0799439 0.0348669 -0.0163051
460 1 1 32.5609 29.8166 23.5916 0.0460211 -0.124067 -0.150543
461 1 3 31.815 29.4822 24.2088 -0.0573687 -0.144268 -0.0300595
462 1 1 31.0962 29.153 24.8729 0.0310339 0.088873 0.144634
463 1 1 30.3101 29.0096 25.5005 0.154626 -0.0604517 0.10744
464 1 1 29.5678 29.1207 26.1648 -0.144512 -0.00595938 0.0185025
465 1 3 26.2216 30.7843 27.9358 0.142054 -0.183581 0.00775258
466 1 1 27.0717 30.2019 27.6531 0.00375122 0.032667 0.142654
467 1 1 28.7103 29.4088 26.7744 0.158623 -0.102309 0.0917844
468 1 1 27.9129 29.748 27.1945 0.0419858 0.0195127 -0.0165211
469 1 3 32.999 30.693 22.1423 -0.0382703 -0.0100653 -0.0701579
470 1 1 32.3424 30.0933 22.6974 0.164546 0.0802737 0.0872218
471 1 1 31.8318 38.9524 23.0772 0.26538 -0.191051 -0.00110977
472 1 1 30.9556 39.1388 23.7035 -0.142693 0.0501941 -0.0537078
473 1 3 30.2401 39.213 24.4161 0.00687176 -0.0305069 -0.184472
474 1 1 25.3552 31.3915 28.0701 -0.107541 0.110362 -0.00674989
475 1 1 25.4726 32.2652 28.4242 0.14622 -0.217281 -0.0555456
476 1 1 25.6238 33.1472 28.7508 0.0221644 -0.0141011 -0.11501
477 1 3 29.5683 39.0788 25.0463 -0.086134 -0.0668794 0.0970899
478 1 1 25.8084 34.0312 28.9058 -0.0803702 0.0106241 0.00506456
479 1 1 26.128 35.0543 28.8238 -0.114815 0.108257 -0.135586
480 1 1 26.5514 35.923 28.56 0.126312 -0.0574199 -0.0582694
481 1 3 28.9881 38.8611 25.7698 0.000329073 0.0831582 -0.187155