ITEM: TIMESTEP
100000000
ITEM: NUMBER OF ATOMS
94148
ITEM: BOX BOUNDS pp pp pp
0 62
0 62
0 62
ITEM: ATOMS id mol type x y z 
1 1 1 7.08717 55.9492 7.10883 
2 1 1 6.82133 56.0055 7.97071 
3 1 1 7.72526 55.7693 7.73785 
4 1 1 7.42865 55.7089 8.64429 
5 1 1 8.04819 55.7303 6.85116 
6 1 1 8.3605 55.3972 8.33981 
7 1 1 7.96519 55.2336 9.26793 
8 1 1 6.24434 56.1499 7.20219 
9 1 1 5.83161 56.0627 8.08423 
10 1 1 6.39625 55.8716 8.85427 
11 1 1 6.95974 55.5613 9.44258 
12 1 1 7.32307 55.0714 10.0755 
13 1 1 6.65021 56.0456 6.33461 
14 1 1 7.43249 55.8807 6.39591 
15 1 1 7.9942 55.6739 5.95259 
16 1 1 8.63401 55.4702 7.40712 
17 1 1 8.7829 55.3289 6.47388 
18 1 1 8.0282 54.7615 10.0922 
19 1 1 8.69345 54.597 9.61564 
20 1 1 8.95418 54.8639 8.82492 
21 1 1 9.25671 54.9975 7.90714 
22 1 1 6.1479 56.0097 5.70681 
23 1 1 5.63155 56.1324 6.56787 
24 1 1 5.25388 56.1163 7.39441 
25 1 1 4.83967 55.9619 8.10139 
26 1 1 5.32671 55.807 8.95504 
27 1 1 5.88613 55.5537 9.65305 
28 1 1 7.6274 54.4683 10.7573 
29 1 1 6.34476 55.1168 10.2854 
30 1 1 6.81178 54.5955 10.8909 
31 1 1 7.0399 55.7054 5.43322 
32 1 1 8.00573 55.4484 5.21763 
33 1 1 8.78673 55.1993 5.60458 
34 1 1 9.4697 54.9211 6.99955 
35 1 1 9.44498 54.8353 6.04468 
36 1 1 8.43895 54.2123 10.5045 
37 1 1 9.10258 53.8982 10.0471 
38 1 1 8.05207 53.7815 11.159 
39 1 1 9.50936 54.1344 9.26903 
40 1 1 9.73582 54.3267 8.54222 
41 1 1 9.9543 54.3409 7.64662 
42 1 1 6.11591 55.7187 4.90505 
43 1 1 5.31341 55.7855 5.23611 
44 1 1 5.02928 55.9702 5.99449 
45 1 1 4.8581 56.0494 6.72515 
46 1 1 4.33297 55.8969 7.25425 
47 1 1 3.95176 55.6292 8.02989 
48 1 1 4.41364 55.623 8.8725 
49 1 1 4.87735 55.3321 9.76677 
50 1 1 5.48319 55.0222 10.4002 
51 1 1 7.21966 53.9826 11.3678 
52 1 1 5.91265 54.534 10.9797 
53 1 1 6.42323 54.1235 11.4223 
54 1 1 6.793 55.3978 4.53721 
55 1 1 5.96903 55.1592 4.00906 
56 1 1 7.5695 55.2478 4.61558 
57 1 1 8.4766 54.9747 4.78766 
58 1 1 7.2751 54.781 3.9635 
59 1 1 9.28008 54.5518 5.11245 
60 1 1 10.0677 54.2437 6.55876 
61 1 1 9.86039 54.1668 5.55137 
62 1 1 9.71093 53.5116 9.68525 
63 1 1 8.82043 53.4827 10.8045 
64 1 1 9.44208 53.1168 10.3468 
65 1 1 7.5238 53.2838 11.7097 
66 1 1 8.37998 52.9908 11.4131 
67 1 1 10.0833 53.5785 8.98662 
68 1 1 10.3104 53.6541 8.08498 
69 1 1 10.4474 53.6174 7.09419 
70 1 1 5.27951 55.4119 4.56581 
71 1 1 4.54108 55.495 5.18211 
72 1 1 4.08051 55.7209 6.19517 
73 1 1 3.53241 55.4424 7.07733 
74 1 1 3.17461 55.1546 7.8814 
75 1 1 3.56393 55.2889 8.7379 
76 1 1 3.92359 55.0552 9.62686 
77 1 1 4.54101 54.7572 10.3897 
78 1 1 5.03448 54.3779 11.0398 
79 1 1 6.65963 53.4181 11.8344 
80 1 1 5.62199 53.8164 11.6303 
81 1 1 6.96678 52.6768 12.1238 
82 1 1 5.08299 54.7058 3.79173 
83 1 1 6.57096 54.656 3.59801 
84 1 1 5.80071 54.5448 3.449 
85 1 1 8.03194 54.6111 4.04655 
86 1 1 8.86055 54.2003 4.27558 
87 1 1 7.44931 54.1566 3.47866 
88 1 1 9.6342 53.7026 4.64208 
89 1 1 10.4463 53.473 6.01406 
90 1 1 10.2036 53.1885 5.06819 
91 1 1 10.1919 52.7583 9.69244 
92 1 1 9.09664 52.661 10.9874 
93 1 1 9.70496 52.2766 10.4105 
94 1 1 7.85974 52.4205 11.8955 
95 1 1 8.65064 52.11 11.5236 
96 1 1 10.5834 52.877 8.65503 
97 1 1 10.7446 52.9175 7.61511 
98 1 1 10.821 52.7703 6.51014 
99 1 1 4.4274 54.9413 4.49116 
100 1 1 3.72285 55.0603 5.25771 
101 1 1 3.18713 55.0522 6.17921 
102 1 1 2.65952 54.7971 7.01281 
103 1 1 2.87948 54.8706 8.59624 
104 1 1 2.48346 54.6095 8.03609 
105 1 1 2.99881 54.5069 9.4873 
106 1 1 3.69429 54.3776 10.3416 
107 1 1 4.25248 54.0237 10.9714 
108 1 1 4.74377 53.6993 11.4471 
109 1 1 7.20359 51.8333 12.4293 
110 1 1 5.94059 52.9875 12.1041 
111 1 1 4.98265 53.105 11.928 
112 1 1 6.26 52.0991 12.5252 
113 1 1 5.24023 54.0529 3.21831 
114 1 1 4.37848 54.3377 3.79934 
115 1 1 6.29197 53.8328 3.08868 
116 1 1 5.54501 53.251 2.77711 
117 1 1 8.21099 53.6987 3.48827 
118 1 1 8.96592 53.2814 3.77457 
119 1 1 7.38823 53.3164 2.98568 
120 1 1 9.8166 52.8306 4.24143 
121 1 1 10.6575 52.5935 5.61509 
122 1 1 10.2465 52.2815 4.64829 
123 1 1 10.7148 52.0894 9.12448 
124 1 1 10.313 51.9716 9.84963 
125 1 1 9.34162 51.7469 10.9941 
126 1 1 9.97782 51.4816 10.3567 
127 1 1 8.07674 51.538 12.0996 
128 1 1 8.87992 51.205 11.6551 
129 1 1 7.50827 51.0129 12.5212 
130 1 1 10.9602 51.9177 6.067 
131 1 1 10.9576 52.1729 8.25756 
132 1 1 11.0705 51.8816 7.07705 
133 1 1 3.59024 54.3492 4.49571 
134 1 1 3.01901 54.4589 5.35879 
135 1 1 2.11103 54.2804 7.39003 
136 1 1 2.53436 54.4014 6.07972 
137 1 1 2.03146 54.0781 6.63042 
138 1 1 2.32307 54.2656 8.83229 
139 1 1 1.87755 53.9643 8.11293 
140 1 1 2.27333 53.7638 9.69248 
141 1 1 2.97281 53.8228 10.3553 
142 1 1 3.56653 53.6878 10.9124 
143 1 1 4.04639 53.0878 11.5058 
144 1 1 6.55499 51.2342 12.7494 
145 1 1 5.37414 52.3771 12.3526 
146 1 1 4.63031 52.4721 12.1172 
147 1 1 5.69863 51.4453 12.6776 
148 1 1 4.65574 53.5554 3.14089 
149 1 1 3.76951 53.6564 3.73659 
150 1 1 6.58851 52.8234 2.67915 
151 1 1 4.79818 52.7359 2.79877 
152 1 1 5.77943 52.3033 2.50006 
153 1 1 8.29482 52.8596 3.11521 
154 1 1 9.23346 52.3527 3.53492 
155 1 1 7.56564 52.4765 2.69391 
156 1 1 9.82712 51.8044 3.98416 
157 1 1 10.6604 51.6891 5.2373 
158 1 1 10.2877 51.4995 4.54333 
159 1 1 10.9586 51.4387 8.75261 
160 1 1 10.5728 51.1441 9.53907 
161 1 1 10.107 50.6627 10.4013 
162 1 1 9.53177 50.7706 11.1073 
163 1 1 8.34263 50.703 12.1765 
164 1 1 8.91381 50.3397 11.7686 
165 1 1 6.9809 50.3971 12.8216 
166 1 1 7.76932 50.3046 12.5756 
167 1 1 11.0868 51.2527 6.45172 
168 1 1 10.8752 51.093 5.67824 
169 1 1 11.0456 51.1348 7.99101 
170 1 1 11.1493 50.8152 7.14352 
171 1 1 3.06248 53.6764 4.54859 
172 1 1 2.45471 53.7216 5.24325 
173 1 1 1.66322 53.6726 7.33392 
174 1 1 2.03225 53.5122 5.9391 
175 1 1 1.64712 53.3876 6.62627 
176 1 1 1.45725 53.2041 8.02172 
177 1 1 1.79366 53.5581 8.85606 
178 1 1 1.85687 52.9844 9.53771 
179 1 1 2.44441 53.0778 10.3707 
180 1 1 3.12119 53.0406 11.0057 
181 1 1 3.3162 52.4294 11.4846 
182 1 1 3.84703 52.1531 11.9961 
183 1 1 5.9483 50.4792 13.0566 
184 1 1 6.53371 49.776 13.1875 
185 1 1 4.65673 51.6402 12.4555 
186 1 1 5.11796 50.942 12.8564 
187 1 1 4.01217 52.9126 3.22429 
188 1 1 3.15084 52.9445 3.85116 
189 1 1 6.7809 51.9784 2.45241 
190 1 1 6.21911 51.4172 2.3446 
191 1 1 4.1687 52.1927 2.95315 
192 1 1 4.79652 51.9092 2.62448 
193 1 1 5.4643 51.5188 2.41232 
194 1 1 8.46564 51.914 2.98382 
195 1 1 9.22206 51.4036 3.30772 
196 1 1 7.75169 51.4687 2.61928 
197 1 1 9.90664 50.7963 4.03743 
198 1 1 10.4678 50.751 4.92122 
199 1 1 10.9052 50.6625 8.72701 
200 1 1 10.717 50.1565 9.26612 
201 1 1 10.4494 50.0983 10.026 
202 1 1 9.95385 49.9261 10.7489 
203 1 1 9.45944 49.658 11.543 
204 1 1 8.46699 49.6438 12.2909 
205 1 1 7.47025 49.4392 12.9457 
206 1 1 10.9956 50.4319 6.32138 
207 1 1 10.6745 50.1103 5.50491 
208 1 1 11.0333 50.2311 7.82017 
209 1 1 10.9561 49.8173 6.96693 
210 1 1 2.53648 52.9394 4.64668 
211 1 1 2.01232 52.8369 5.28008 
212 1 1 1.36334 52.8602 7.1483 
213 1 1 1.53389 52.5535 6.12151 
214 1 1 1.19304 52.3012 7.84511 
215 1 1 1.43001 52.7122 8.71201 
216 1 1 6.53876 49.023 13.4359 
217 1 1 5.71252 49.592 13.4266 
218 1 1 1.43077 52.1333 9.33569 
219 1 1 1.9312 52.2697 10.124 
220 1 1 2.55794 52.2316 10.9908 
221 1 1 3.08195 51.7311 11.7558 
222 1 1 3.65286 51.2942 12.3281 
223 1 1 5.00279 50.2518 13.2093 
224 1 1 4.28668 50.6775 12.8169 
225 1 1 2.58464 52.1205 4.10609 
226 1 1 3.37153 51.9229 3.34189 
227 1 1 7.11729 50.9683 2.44042 
228 1 1 6.41157 50.5949 2.36262 
229 1 1 5.64857 50.7462 2.42332 
230 1 1 4.14752 51.362 2.89238 
231 1 1 4.87509 51.0234 2.58679 
232 1 1 8.50477 50.9311 2.8605 
233 1 1 9.19068 50.3686 3.23401 
234 1 1 7.8518 50.4106 2.64843 
235 1 1 9.56526 49.7996 3.82827 
236 1 1 10.1229 49.9432 4.67135 
237 1 1 10.847 49.7617 8.58246 
238 1 1 10.637 49.2788 9.43514 
239 1 1 10.2725 49.1601 10.3617 
240 1 1 9.75979 48.9958 11.1692 
241 1 1 9.01588 48.8951 11.9922 
242 1 1 8.21636 48.6695 12.6364 
243 1 1 7.33074 48.4796 13.2206 
244 1 1 10.6531 49.5216 6.15168 
245 1 1 10.2739 49.2072 5.33064 
246 1 1 10.8245 49.276 7.75642 
247 1 1 10.6553 48.933 6.8998 
248 1 1 2.09566 52.1575 4.81803 
249 1 1 1.74351 51.9662 5.47747 
250 1 1 1.2533 51.9842 6.94391 
251 1 1 1.47804 51.59 6.14795 
252 1 1 1.04774 51.4036 7.7102 
253 1 1 1.12267 51.8172 8.56435 
254 1 1 6.42668 48.0972 13.6864 
255 1 1 5.68562 48.7062 13.6605 
256 1 1 4.83163 49.3054 13.4866 
257 1 1 1.1269 51.2771 9.25796 
258 1 1 1.49344 51.4647 10.0518 
259 1 1 1.97454 51.5618 10.6952 
260 1 1 2.34081 51.1776 11.4003 
261 1 1 2.79424 50.7782 12.0118 
262 1 1 3.42358 50.3622 12.6512 
263 1 1 4.15119 49.8644 13.1546 
264 1 1 2.22228 51.4495 4.47263 
265 1 1 2.74075 51.2032 3.85523 
266 1 1 3.44294 50.8711 3.2471 
267 1 1 7.0033 49.8264 2.52688 
268 1 1 5.9772 49.9356 2.53913 
269 1 1 5.1355 50.1783 2.611 
270 1 1 4.23623 50.4788 2.88911 
271 1 1 8.4783 49.9473 2.96028 
272 1 1 8.94539 49.5433 3.36586 
273 1 1 7.77658 49.5652 2.86444 
274 1 1 9.07599 48.9731 3.88736 
275 1 1 9.68521 49.0489 4.55224 
276 1 1 10.6649 48.7585 8.4946 
277 1 1 10.6263 48.2626 9.07073 
278 1 1 10.431 48.2159 9.82379 
279 1 1 10.0572 48.2556 10.6268 
280 1 1 9.47276 48.1818 11.5585 
281 1 1 8.80678 48.0079 12.3024 
282 1 1 7.98205 47.7778 12.9729 
283 1 1 7.11973 47.5404 13.6255 
284 1 1 10.3156 48.63 6.05925 
285 1 1 9.8431 48.4069 5.29077 
286 1 1 10.5473 48.4498 7.59241 
287 1 1 10.3075 48.0753 6.66346 
288 1 1 1.80314 51.1291 5.25565 
289 1 1 1.24879 51.1098 6.80937 
290 1 1 1.4506 50.8432 6.07695 
291 1 1 6.21723 47.3377 14.0773 
292 1 1 0.899504 50.4525 7.60504 
293 1 1 0.926179 50.867 8.421 
294 1 1 5.46581 47.8978 13.9703 
295 1 1 4.73483 48.4209 13.8095 
296 1 1 3.94042 49.0066 13.4675 
297 1 1 0.891176 50.4078 9.15164 
298 1 1 1.14941 50.7537 9.83741 
299 1 1 1.60619 50.6608 10.7302 
300 1 1 2.04182 50.2248 11.6085 
301 1 1 2.6223 49.9559 12.3361 
302 1 1 3.24276 49.501 13.045 
303 1 1 3.6089 49.9884 3.31812 
304 1 1 2.30429 50.6748 4.45516 
305 1 1 2.88962 50.3102 3.78786 
306 1 1 7.21401 48.9987 2.89794 
307 1 1 6.36687 49.129 2.70536 
308 1 1 5.41703 49.3087 2.7315 
309 1 1 4.49397 49.6062 2.95739 
310 1 1 8.20104 48.9235 3.35578 
311 1 1 8.60153 48.2816 3.97279 
312 1 1 9.15501 48.1523 4.60783 
313 1 1 10.5125 47.8175 8.38079 
314 1 1 10.401 47.4752 9.2212 
315 1 1 10.1431 47.3919 10.1831 
316 1 1 9.77458 47.311 11.0278 
317 1 1 9.19893 47.2394 11.876 
318 1 1 8.51197 47.0309 12.6366 
319 1 1 7.79852 46.8568 13.41 
320 1 1 6.89496 46.6571 14.0411 
321 1 1 9.94473 47.7413 5.93967 
322 1 1 9.47757 47.6487 5.31483 
323 1 1 10.3222 47.5403 7.42942 
324 1 1 10.0688 47.3367 6.64786 
325 1 1 1.9714 50.1848 4.97386 
326 1 1 1.62179 50.1222 5.6315 
327 1 1 1.20301 50.1294 6.56269 
328 1 1 0.860225 49.702 7.38277 
329 1 1 6.00909 46.3797 14.4569 
330 1 1 5.35597 46.9266 14.3097 
331 1 1 0.76894 49.8459 8.29958 
332 1 1 4.55509 47.4745 14.1299 
333 1 1 3.77708 48.0787 13.7932 
334 1 1 3.00997 48.5411 13.3745 
335 1 1 0.709353 49.5863 9.10524 
336 1 1 0.985512 49.7984 10.0547 
337 1 1 1.38153 49.5748 11.1042 
338 1 1 1.88431 49.4482 12.0088 
339 1 1 2.35445 49.0701 12.7513 
340 1 1 7.31699 48.3294 3.28295 
341 1 1 3.98219 49.0513 3.35198 
342 1 1 3.17705 49.3019 3.81083 
343 1 1 2.42318 49.6359 4.41258 
344 1 1 6.54905 48.395 3.05703 
345 1 1 5.64477 48.4497 3.01979 
346 1 1 4.74868 48.7298 3.07245 
347 1 1 4.17648 48.1827 3.52349 
348 1 1 7.90876 47.9603 3.71765 
349 1 1 8.40743 47.5547 4.27102 
350 1 1 8.82751 47.0884 5.02264 
351 1 1 10.3484 46.9821 7.94771 
352 1 1 10.3477 46.7463 8.75161 
353 1 1 10.2261 46.5626 9.68201 
354 1 1 9.94643 46.4789 10.5713 
355 1 1 9.53713 46.4057 11.4362 
356 1 1 9.01116 46.2918 12.2286 
357 1 1 8.36425 46.1578 13.0784 
358 1 1 7.5543 46.0079 13.8523 
359 1 1 6.78205 45.7907 14.3964 
360 1 1 9.43622 46.8979 5.94743 
361 1 1 9.94944 46.4933 7.02409 
362 1 1 1.83971 49.4077 5.21392 
363 1 1 1.40943 49.2653 5.98059 
364 1 1 0.953786 49.0114 6.86819 
365 1 1 0.692385 49.016 7.84643 
366 1 1 5.81742 45.4753 14.8534 
367 1 1 5.07339 45.9973 14.7423 
368 1 1 4.38266 46.6436 14.5358 
369 1 1 0.533484 48.804 8.70549 
370 1 1 3.55222 47.2342 14.1775 
371 1 1 2.86717 47.6827 13.7696 
372 1 1 2.17484 48.1157 13.1006 
373 1 1 0.599052 48.9137 9.61674 
374 1 1 0.824119 48.8967 10.5235 
375 1 1 1.17336 48.7804 11.5194 
376 1 1 1.64528 48.5688 12.3659 
377 1 1 6.90759 47.5807 3.56597 
378 1 1 3.40272 48.4165 3.85667 
379 1 1 2.79894 48.7047 4.29414 
380 1 1 2.13237 48.6064 4.89189 
381 1 1 5.97404 47.6132 3.34765 
382 1 1 5.05883 47.8062 3.36552 
383 1 1 4.32061 47.3086 3.68777 
384 1 1 3.65848 47.6621 3.88108 
385 1 1 7.67578 47.0725 4.06537 
386 1 1 8.20703 46.6254 4.70693 
387 1 1 8.76139 46.2188 5.5053 
388 1 1 10.0984 46.1475 7.97511 
389 1 1 10.1367 45.8677 8.92418 
390 1 1 10.0487 45.68 9.95028 
391 1 1 9.7129 45.542 10.9653 
392 1 1 9.37083 45.483 11.8457 
393 1 1 8.85845 45.4585 12.6934 
394 1 1 8.22837 45.3178 13.5259 
395 1 1 7.50255 45.1106 14.2596 
396 1 1 6.64168 44.8553 14.7957 
397 1 1 9.33752 45.8695 6.39823 
398 1 1 9.66698 45.555 7.29324 
399 1 1 1.59506 48.425 5.51141 
400 1 1 1.08797 48.3151 6.33963 
401 1 1 0.773706 48.2063 7.20793 
402 1 1 5.79434 44.5356 15.186 
403 1 1 0.523998 48.0632 8.1204 
404 1 1 5.01148 44.98 15.1508 
405 1 1 4.2143 45.6594 14.9292 
406 1 1 3.49303 46.2685 14.5862 
407 1 1 0.361614 47.9874 9.09693 
408 1 1 2.67636 46.7341 14.0174 
409 1 1 2.06828 47.1771 13.4524 
410 1 1 1.47175 47.6002 12.6981 
411 1 1 0.479718 48.0389 10.0497 
412 1 1 0.713539 48.0439 10.9938 
413 1 1 1.00603 47.8719 11.8316 
414 1 1 6.2088 46.961 3.7342 
415 1 1 6.80127 46.4965 4.00536 
416 1 1 2.79417 47.7411 4.37468 
417 1 1 2.06876 47.6104 5.02726 
418 1 1 5.27582 46.8723 3.69268 
419 1 1 4.46041 46.5369 3.92512 
420 1 1 3.54208 46.7526 4.22051 
421 1 1 7.45274 46.1425 4.49345 
422 1 1 8.05007 45.7549 5.14453 
423 1 1 8.63191 45.3324 5.90977 
424 1 1 9.9021 45.2231 8.32766 
425 1 1 9.91494 44.9559 9.3017 
426 1 1 9.82797 44.7765 10.3255 
427 1 1 9.6113 44.584 11.3043 
428 1 1 9.26002 44.6606 12.2594 
429 1 1 6.51268 43.8807 15.1367 
430 1 1 8.75945 44.5899 13.0881 
431 1 1 8.1358 44.464 13.8783 
432 1 1 7.34269 44.1905 14.5903 
433 1 1 9.16111 44.9566 6.70224 
434 1 1 9.48603 44.6308 7.6901 
435 1 1 1.44525 47.5171 5.8039 
436 1 1 0.939237 47.4326 6.67417 
437 1 1 0.615699 47.3453 7.59487 
438 1 1 5.63456 43.6548 15.5627 
439 1 1 4.85325 44.1337 15.5854 
440 1 1 0.359792 47.1531 8.48459 
441 1 1 4.0525 44.7861 15.3439 
442 1 1 3.30224 45.2931 14.9545 
443 1 1 2.58998 45.8173 14.3363 
444 1 1 0.229703 47.1805 9.4317 
445 1 1 1.89313 46.2262 13.7318 
446 1 1 1.32101 46.6578 12.9949 
447 1 1 0.833632 46.8977 12.1286 
448 1 1 0.334771 47.1027 10.3077 
449 1 1 0.511006 47.0366 11.2584 
450 1 1 5.932 46.2048 3.99751 
451 1 1 6.61484 45.6632 4.36573 
452 1 1 2.55235 46.6518 4.72842 
453 1 1 1.76889 46.7703 5.41742 
454 1 1 5.01127 45.8994 4.04179 
455 1 1 4.09508 45.8231 4.24931 
456 1 1 3.1946 45.8894 4.54294 
457 1 1 7.24878 45.2208 4.89896 
458 1 1 7.94201 44.827 5.57013 
459 1 1 8.42931 44.3812 6.28546 
460 1 1 9.66975 44.2769 8.68251 
461 1 1 9.78095 44.0201 9.6883 
462 1 1 9.67332 43.8249 10.711 
463 1 1 9.50261 43.719 11.7639 
464 1 1 9.13929 43.7715 12.6306 
465 1 1 6.2902 42.9172 15.5244 
466 1 1 7.18996 43.3318 14.9241 
467 1 1 8.65886 43.6535 13.4486 
468 1 1 8.04878 43.4831 14.1887 
469 1 1 8.945 44.0118 7.18683 
470 1 1 9.3057 43.6943 8.06263 
471 1 1 1.21636 46.6089 6.18245 
472 1 1 0.784178 46.4847 7.03176 
473 1 1 0.433452 46.3627 7.93148 
474 1 1 5.32012 42.7723 16.0048 
475 1 1 4.63057 43.3481 15.9146 
476 1 1 3.78923 43.8735 15.7339 
477 1 1 0.126343 46.25 8.79476 
478 1 1 3.13021 44.4095 15.3422 
479 1 1 2.40501 44.9659 14.8055 
480 1 1 1.77483 45.3696 14.1489 
481 1 1 0.00772653 46.2027 9.76834 
482 1 1 1.13323 45.7354 13.3867 
483 1 1 0.633822 46.0263 12.5743 
484 1 1 0.209771 46.1539 11.6241 
485 1 1 0.123782 46.2477 10.6946 
486 1 1 5.6997 45.2626 4.36077 
487 1 1 6.37908 44.7733 4.72415 
488 1 1 2.31073 45.8399 5.14573 
489 1 1 1.57358 45.824 5.79931 
490 1 1 4.80927 45.1385 4.38878 
491 1 1 3.88425 44.9319 4.60173 
492 1 1 2.99994 45.0215 4.92077 
493 1 1 7.09085 44.3189 5.25497 
494 1 1 7.71777 43.9217 5.90564 
495 1 1 8.26993 43.4711 6.60861 
496 1 1 6.06152 42.1144 15.8943 
497 1 1 9.53463 43.3883 9.05034 
498 1 1 9.63862 43.1525 10.1387 
499 1 1 9.4686 42.9481 11.1826 
500 1 1 9.25662 42.8115 12.1451 
501 1 1 8.86394 42.8228 13.0034 
502 1 1 6.99997 42.3634 15.3405 
503 1 1 7.79855 42.6554 14.5814 
504 1 1 8.39978 42.6764 13.8213 
505 1 1 8.78053 43.0997 7.47235 
506 1 1 9.09942 42.8035 8.38169 
507 1 1 5.17848 41.8678 16.3447 
508 1 1 0.984894 45.6319 6.48873 
509 1 1 0.538521 45.5829 7.33728 
510 1 1 0.157 45.398 8.28578 
511 1 1 4.36622 42.5068 16.3395 
512 1 1 3.57719 43.0688 16.064 
513 1 1 2.76828 43.5789 15.753 
514 1 1 61.8755 45.2756 9.21578 
515 1 1 2.15505 44.0909 15.1775 
516 1 1 1.52668 44.462 14.5264 
517 1 1 0.964431 44.8858 13.7852 
518 1 1 61.8438 45.3984 10.1615 
519 1 1 0.433871 45.175 12.9491 
520 1 1 0.0552408 45.2967 12.1375 
521 1 1 61.807 45.3533 11.1692 
522 1 1 5.47411 44.4932 4.7364 
523 1 1 6.13919 43.9188 5.10117 
524 1 1 2.18493 44.882 5.46827 
525 1 1 1.38867 44.8568 6.13861 
526 1 1 4.51008 44.2134 4.79958 
527 1 1 3.59026 44.1185 5.03657 
528 1 1 2.71178 44.0112 5.3276 
529 1 1 6.85768 43.471 5.61967 
530 1 1 7.46872 42.9863 6.19819 
531 1 1 8.08808 42.5012 6.96586 
532 1 1 5.86993 41.2506 16.3085 
533 1 1 6.76795 41.4714 15.735 
534 1 1 9.3031 42.5402 9.4502 
535 1 1 9.32638 42.2248 10.455 
536 1 1 9.18237 42.0839 11.4871 
537 1 1 8.91897 41.9132 12.4894 
538 1 1 8.57212 41.8551 13.3675 
539 1 1 7.56993 41.6843 14.9766 
540 1 1 8.14659 41.753 14.1943 
541 1 1 8.54811 42.2011 7.84504 
542 1 1 8.87037 41.9044 8.77213 
543 1 1 5.0477 40.9133 16.7234 
544 1 1 4.30112 41.5461 16.6353 
545 1 1 0.710835 44.7227 6.8268 
546 1 1 0.251103 44.6171 7.75075 
547 1 1 61.9561 44.5064 8.67861 
548 1 1 3.44874 42.1383 16.5273 
549 1 1 2.64322 42.666 16.1422 
550 1 1 1.90621 43.1471 15.6318 
551 1 1 61.6879 44.4937 9.70796 
552 1 1 1.242 43.547 14.9781 
553 1 1 0.780852 43.988 14.2101 
554 1 1 0.202581 44.2684 13.3902 
555 1 1 61.6082 44.554 10.6474 
556 1 1 61.8261 44.4397 12.5461 
557 1 1 61.6353 44.5099 11.6252 
558 1 1 5.21336 43.5485 5.07335 
559 1 1 5.94632 43.0194 5.41448 
560 1 1 1.87923 43.9762 5.8056 
561 1 1 1.09588 43.916 6.46454 
562 1 1 4.32306 43.316 5.16062 
563 1 1 3.44668 43.1912 5.35094 
564 1 1 2.53575 43.1073 5.6809 
565 1 1 6.60077 42.5372 5.93101 
566 1 1 7.31821 42.0397 6.56832 
567 1 1 7.89205 41.6453 7.38083 
568 1 1 5.79548 40.337 16.6596 
569 1 1 6.56847 40.5865 16.1564 
570 1 1 7.33981 40.7961 15.3717 
571 1 1 9.04952 41.6388 9.76537 
572 1 1 9.02309 41.3299 10.8349 
573 1 1 8.91848 41.1575 11.792 
574 1 1 8.68282 41.0593 12.832 
575 1 1 8.3722 40.8997 13.6939 
576 1 1 7.9148 40.8915 14.5054 
577 1 1 8.33947 41.3499 8.28389 
578 1 1 8.64253 41.0557 9.13527 
579 1 1 4.88126 40.0476 17.0509 
580 1 1 4.13144 40.6474 17.0241 
581 1 1 3.34059 41.2007 16.8349 
582 1 1 0.557612 43.8269 7.24726 
583 1 1 0.0957592 43.7111 8.12492 
584 1 1 61.7754 43.7206 9.18866 
585 1 1 2.51878 41.7391 16.5381 
586 1 1 1.75698 42.2434 16.0146 
587 1 1 1.10569 42.6299 15.3577 
588 1 1 61.5344 43.649 10.1289 
589 1 1 0.494574 43.0356 14.5919 
590 1 1 0.0160867 43.3358 13.8154 
591 1 1 61.7189 43.4742 12.9879 
592 1 1 61.4351 43.6776 11.077 
593 1 1 61.4673 43.698 12.11 
594 1 1 5.11749 42.547 5.40255 
595 1 1 5.79575 42.0019 5.77237 
596 1 1 1.71813 43.0583 6.10768 
597 1 1 0.93678 42.9797 6.87426 
598 1 1 4.14738 42.3368 5.46802 
599 1 1 3.26358 42.2364 5.69254 
600 1 1 2.31409 42.2311 6.07377 
601 1 1 6.54498 41.542 6.32146 
602 1 1 7.17642 41.1305 6.94062 
603 1 1 7.72453 40.7581 7.81924 
604 1 1 5.52865 39.4323 16.9449 
605 1 1 4.64704 39.1251 17.3564 
606 1 1 5.30779 38.531 17.1892 
607 1 1 6.45153 39.6422 16.4534 
608 1 1 7.3002 39.9112 15.7504 
609 1 1 7.79549 39.9826 14.9056 
610 1 1 8.7609 40.6947 10.0682 
611 1 1 8.7534 40.492 11.0975 
612 1 1 8.68479 40.2537 12.1585 
613 1 1 8.48525 40.096 13.1499 
614 1 1 8.21233 39.9836 14.021 
615 1 1 8.16286 40.3583 8.63609 
616 1 1 8.40836 40.1049 9.55516 
617 1 1 3.89862 39.721 17.3978 
618 1 1 3.09076 40.3333 17.1919 
619 1 1 2.24674 40.8078 16.8502 
620 1 1 0.33415 42.8545 7.67483 
621 1 1 61.8945 42.8206 8.57307 
622 1 1 61.493 42.8477 9.50354 
623 1 1 1.56484 41.3828 16.39 
624 1 1 0.895416 41.7459 15.6901 
625 1 1 0.336661 42.1353 14.9233 
626 1 1 61.2878 42.7956 10.5372 
627 1 1 61.8181 42.3723 14.1394 
628 1 1 61.5453 42.5814 13.3212 
629 1 1 61.3299 42.7622 12.4086 
630 1 1 61.236 42.8161 11.5495 
631 1 1 3.77291 38.7465 17.7151 
632 1 1 4.53393 38.033 17.705 
633 1 1 4.83742 41.5929 5.70834 
634 1 1 5.61416 41.0673 6.08459 
635 1 1 1.48924 42.1441 6.60897 
636 1 1 0.687722 42.0539 7.26897 
637 1 1 3.8823 41.3939 5.83672 
638 1 1 3.00631 41.4147 6.09213 
639 1 1 2.12565 41.3843 6.43729 
640 1 1 6.34584 40.6125 6.6874 
641 1 1 7.05164 40.2384 7.31577 
642 1 1 7.47278 39.8039 8.1193 
643 1 1 6.15481 38.7279 16.755 
644 1 1 5.44614 37.5786 17.4907 
645 1 1 6.11008 37.8504 17.0217 
646 1 1 7.05441 38.9371 16.1631 
647 1 1 7.64723 39.0566 15.3751 
648 1 1 8.08314 39.1289 14.5136 
649 1 1 8.5691 39.7564 10.5022 
650 1 1 8.59466 39.5584 11.5036 
651 1 1 8.52366 39.3048 12.5478 
652 1 1 8.38774 39.2312 13.4748 
653 1 1 7.97956 39.4534 9.04957 
654 1 1 8.20815 39.145 9.93313 
655 1 1 2.95395 39.3501 17.5115 
656 1 1 2.1279 39.9073 17.2137 
657 1 1 1.32087 40.4339 16.7264 
658 1 1 0.101459 41.9989 8.13759 
659 1 1 61.5948 41.937 8.98224 
660 1 1 61.2755 41.977 9.86939 
661 1 1 0.680811 40.8764 16.0479 
662 1 1 0.0902522 41.2338 15.2717 
663 1 1 61.4992 41.5049 14.4494 
664 1 1 61.0939 41.9061 10.7771 
665 1 1 61.2267 41.6601 13.6102 
666 1 1 61.1032 41.8611 12.724 
667 1 1 61.0322 41.9014 11.7719 
668 1 1 2.69355 38.5 17.7996 
669 1 1 3.43161 37.8477 18.0504 
670 1 1 4.83871 37.2493 17.8825 
671 1 1 5.37124 36.745 17.7672 
672 1 1 4.08124 37.2372 18.1951 
673 1 1 4.65962 40.7417 6.08946 
674 1 1 5.47152 40.231 6.48307 
675 1 1 1.3002 41.2152 6.91869 
676 1 1 0.521408 41.2162 7.5937 
677 1 1 3.67671 40.5521 6.20044 
678 1 1 2.74758 40.5305 6.40801 
679 1 1 1.94021 40.4313 6.81995 
680 1 1 6.14255 39.7686 7.02779 
681 1 1 6.80629 39.3496 7.62261 
682 1 1 7.32796 38.887 8.41514 
683 1 1 6.85292 37.969 16.4672 
684 1 1 6.03348 36.9219 17.3554 
685 1 1 6.66525 37.0697 16.8248 
686 1 1 7.44846 38.1176 15.7626 
687 1 1 7.86947 38.1997 14.9191 
688 1 1 8.18746 38.3324 14.0189 
689 1 1 8.35372 38.8213 10.9108 
690 1 1 8.42695 38.6911 11.9098 
691 1 1 8.38251 38.3857 12.9809 
692 1 1 7.70775 38.6184 9.36382 
693 1 1 8.02685 38.201 10.2856 
694 1 1 1.91962 39.0272 17.5144 
695 1 1 1.23056 39.5574 17.0493 
696 1 1 0.498023 39.9258 16.425 
697 1 1 61.9361 41.0512 8.38345 
698 1 1 61.427 41.0973 9.31785 
699 1 1 61.0874 41.0407 10.2721 
700 1 1 61.918 40.4254 15.675 
701 1 1 61.3221 40.617 14.8205 
702 1 1 61.0284 40.7992 14.0067 
703 1 1 60.9004 40.9781 11.1935 
704 1 1 60.8867 40.921 13.0644 
705 1 1 60.8156 40.9694 12.1741 
706 1 1 1.78363 38.0046 17.8195 
707 1 1 2.43467 37.5075 18.2066 
708 1 1 3.18148 36.8624 18.4779 
709 1 1 5.77897 35.9136 17.8154 
710 1 1 4.7125 36.3662 18.2054 
711 1 1 3.92037 36.4035 18.4917 
712 1 1 4.53048 39.8836 6.50753 
713 1 1 5.25009 39.3178 6.87544 
714 1 1 1.19519 40.3167 7.25696 
715 1 1 0.390253 40.2904 7.95166 
716 1 1 3.53823 39.6848 6.54444 
717 1 1 2.60571 39.6492 6.84344 
718 1 1 1.75001 39.4429 7.116 
719 1 1 5.98605 38.827 7.29754 
720 1 1 6.61022 38.3967 7.94041 
721 1 1 7.16934 38.0183 8.71651 
722 1 1 7.28474 37.0967 16.146 
723 1 1 6.50081 36.1403 17.1852 
724 1 1 7.02744 36.2585 16.4994 
725 1 1 7.71195 37.2313 15.284 
726 1 1 8.09939 37.3719 14.3487 
727 1 1 8.19219 37.5393 13.3599 
728 1 1 8.27713 37.9348 11.3493 
729 1 1 8.28359 37.7368 12.3805 
730 1 1 7.54628 37.6922 9.66392 
731 1 1 7.82433 37.3561 10.6447 
732 1 1 0.987663 38.6314 17.3296 
733 1 1 0.355795 39.0673 16.8317 
734 1 1 61.7883 39.4902 16.0584 
735 1 1 61.7881 40.2877 8.82366 
736 1 1 61.2313 40.2349 9.70788 
737 1 1 60.9076 40.1834 10.6067 
738 1 1 61.2528 39.6676 15.1826 
739 1 1 60.884 39.8309 14.2592 
740 1 1 60.7039 39.9974 13.4526 
741 1 1 60.6811 40.0782 11.5919 
742 1 1 60.5672 40.0165 12.5071 
743 1 1 1.53813 37.0946 18.1861 
744 1 1 0.922629 37.6739 17.6295 
745 1 1 2.1633 36.6194 18.552 
746 1 1 1.22846 36.1872 18.4516 
747 1 1 6.40246 35.3862 17.4398 
748 1 1 2.64233 36.0185 18.8371 
749 1 1 5.90941 34.9697 17.9481 
750 1 1 3.37709 35.9017 18.8035 
751 1 1 5.10254 35.3936 18.3366 
752 1 1 4.20704 35.6485 18.6786 
753 1 1 4.39472 38.9732 6.85637 
754 1 1 5.15248 38.3931 7.1885 
755 1 1 0.951398 39.4245 7.62355 
756 1 1 0.170604 39.4661 8.36121 
757 1 1 3.38293 38.7948 6.98394 
758 1 1 2.47365 38.7177 7.24764 
759 1 1 1.53422 38.5544 7.54261 
760 1 1 5.84373 37.8448 7.66585 
761 1 1 6.54585 37.5445 8.28542 
762 1 1 6.957 37.0782 9.0891 
763 1 1 7.52166 36.2632 15.6165 
764 1 1 6.90484 35.4051 16.8146 
765 1 1 7.35535 35.4692 15.9782 
766 1 1 7.93276 36.4583 14.6772 
767 1 1 8.03776 36.635 13.6344 
768 1 1 8.0437 36.8347 12.667 
769 1 1 8.0277 37.062 11.6612 
770 1 1 7.33318 36.7418 10.0159 
771 1 1 7.68262 36.4507 11.0285 
772 1 1 0.188049 38.119 17.0479 
773 1 1 61.6758 38.583 16.3848 
774 1 1 61.1094 38.8523 15.5379 
775 1 1 61.5922 39.4241 9.15865 
776 1 1 61.0359 39.3568 9.97134 
777 1 1 60.6009 39.2553 10.9426 
778 1 1 60.7631 38.8761 14.6442 
779 1 1 60.5144 39.0313 13.7564 
780 1 1 60.2941 39.1137 12.8354 
781 1 1 60.3972 39.1664 11.9033 
782 1 1 60.6753 38.1794 15.15 
783 1 1 0.714521 36.7045 17.9984 
784 1 1 0.0839378 37.2092 17.4039 
785 1 1 1.80868 35.5706 18.9325 
786 1 1 0.429196 35.856 18.3258 
787 1 1 0.908824 35.4106 18.7127 
788 1 1 1.20949 34.7651 19.1067 
789 1 1 6.68683 34.4551 17.2692 
790 1 1 6.01808 33.9768 18.0311 
791 1 1 2.78544 35.272 19.1337 
792 1 1 5.31819 34.404 18.5131 
793 1 1 3.67028 35.0659 19.0485 
794 1 1 4.51522 34.8259 18.8148 
795 1 1 4.14148 38.1292 7.20058 
796 1 1 4.90655 37.5026 7.48041 
797 1 1 0.760579 38.6043 8.0827 
798 1 1 61.9887 38.593 8.68749 
799 1 1 3.17657 37.9554 7.31464 
800 1 1 2.24244 37.8197 7.53114 
801 1 1 1.34369 37.7529 7.87283 
802 1 1 5.63349 36.984 7.94864 
803 1 1 6.26134 36.6367 8.6258 
804 1 1 6.74727 36.1721 9.42698 
805 1 1 7.71994 35.5287 14.9454 
806 1 1 7.15054 34.5851 16.3565 
807 1 1 7.56416 34.7148 15.4259 
808 1 1 7.90522 35.7481 14.0378 
809 1 1 7.86051 35.8519 13.0272 
810 1 1 7.77074 36.1343 11.9423 
811 1 1 7.18336 35.8385 10.3769 
812 1 1 7.45676 35.5472 11.3148 
813 1 1 61.5189 37.5868 16.7697 
814 1 1 61.0382 37.9973 15.9893 
815 1 1 61.3241 38.4914 9.43631 
816 1 1 60.8191 38.4531 10.3036 
817 1 1 60.4481 38.3123 11.2002 
818 1 1 60.3099 37.9918 14.1543 
819 1 1 60.163 38.1322 13.1297 
820 1 1 60.2111 38.216 12.1827 
821 1 1 60.5476 37.4873 15.6128 
822 1 1 60.3244 37.5002 14.8669 
823 1 1 61.3561 36.8292 17.0826 
824 1 1 61.7607 36.2708 17.6577 
825 1 1 61.7184 35.4442 18.1746 
826 1 1 2.08721 34.5869 19.2999 
827 1 1 0.146924 34.8762 18.7325 
828 1 1 0.649603 34.2047 19.1032 
829 1 1 1.43173 33.9512 19.4354 
830 1 1 6.93844 33.637 16.695 
831 1 1 6.52947 33.5893 17.3939 
832 1 1 6.17171 33.0812 17.8087 
833 1 1 5.56183 33.44 18.4422 
834 1 1 3.02872 34.3676 19.3181 
835 1 1 4.79369 33.7537 18.8998 
836 1 1 3.97363 34.1421 19.1535 
837 1 1 3.91677 37.2604 7.5043 
838 1 1 4.6905 36.5861 7.7939 
839 1 1 0.578447 37.5999 8.42977 
840 1 1 61.8296 37.6849 9.02554 
841 1 1 2.95862 37.0508 7.6536 
842 1 1 1.98724 36.8891 7.83182 
843 1 1 1.19884 36.7598 8.21702 
844 1 1 5.43296 36.1451 8.32632 
845 1 1 6.05201 35.7253 8.97225 
846 1 1 6.56259 35.2396 9.68973 
847 1 1 7.69105 34.7755 14.3704 
848 1 1 7.24115 33.8386 15.8989 
849 1 1 7.49151 33.9444 14.9887 
850 1 1 7.70915 34.9936 13.3516 
851 1 1 7.57716 35.1177 12.3181 
852 1 1 7.00902 35.0236 10.5859 
853 1 1 7.19387 34.7323 11.4319 
854 1 1 60.7387 37.06 16.452 
855 1 1 61.1986 37.6072 9.79277 
856 1 1 60.67 37.5096 10.6508 
857 1 1 60.0529 36.9255 14.3375 
858 1 1 60.2963 37.4394 11.5659 
859 1 1 60.0441 37.1978 13.5222 
860 1 1 60.0634 37.2126 12.5253 
861 1 1 60.1341 36.7585 15.4587 
862 1 1 59.8615 36.2635 14.7612 
863 1 1 60.8085 36.2132 16.969 
864 1 1 61.0734 35.513 17.6127 
865 1 1 61.2482 34.8647 18.2042 
866 1 1 61.374 34.2073 18.6659 
867 1 1 2.38155 33.6523 19.6092 
868 1 1 61.9773 33.8577 18.9734 
869 1 1 0.661138 33.4034 19.3536 
870 1 1 1.61142 32.796 19.6537 
871 1 1 6.99728 33.0813 16.1923 
872 1 1 6.68286 32.6974 17.0138 
873 1 1 6.21264 32.2863 17.7496 
874 1 1 5.69893 32.5207 18.3818 
875 1 1 4.94064 32.6969 18.8921 
876 1 1 3.32442 33.4188 19.5211 
877 1 1 4.18356 33.125 19.3034 
878 1 1 3.73329 36.4114 7.7826 
879 1 1 4.48788 35.7146 8.20979 
880 1 1 0.38472 36.7022 8.7578 
881 1 1 61.6038 36.768 9.40756 
882 1 1 2.74407 36.0915 7.98833 
883 1 1 1.81386 35.8872 8.21388 
884 1 1 1.02062 35.8653 8.63274 
885 1 1 5.26601 35.2918 8.71899 
886 1 1 5.8836 34.8029 9.34168 
887 1 1 6.41713 34.397 10.0778 
888 1 1 7.50085 33.9735 13.8323 
889 1 1 7.37513 33.3013 14.4565 
890 1 1 7.24178 32.9808 15.3568 
891 1 1 7.50518 34.2501 12.8255 
892 1 1 7.28564 34.2923 12.0673 
893 1 1 6.74643 34.1732 10.8083 
894 1 1 6.91935 33.9153 11.5066 
895 1 1 60.1709 36.139 16.2986 
896 1 1 60.9904 36.6498 10.1661 
897 1 1 60.4896 36.5683 10.9919 
898 1 1 59.8082 36.0697 13.7946 
899 1 1 60.1141 36.4735 11.8589 
900 1 1 59.9015 36.2694 12.8657 
901 1 1 59.8359 35.8625 15.3984 
902 1 1 59.6244 35.498 14.5821 
903 1 1 60.3892 35.3969 16.9421 
904 1 1 60.5156 34.7777 17.6529 
905 1 1 60.6614 33.8625 18.2514 
906 1 1 61.2688 33.3827 18.7442 
907 1 1 2.65428 32.6369 19.6941 
908 1 1 61.9047 32.9116 19.112 
909 1 1 0.690609 32.5117 19.5284 
910 1 1 1.30926 31.9317 19.6249 
911 1 1 2.07574 31.8651 19.6461 
912 1 1 6.98889 32.3108 16.0834 
913 1 1 6.71881 31.7986 16.62 
914 1 1 6.37699 31.6834 17.3012 
915 1 1 5.85635 31.6665 18.0428 