ITEM: TIMESTEP
100000000
ITEM: NUMBER OF ATOMS
51222
ITEM: BOX BOUNDS pp pp pp
0 62
0 62
0 62
ITEM: ATOMS id mol type x y z vx vy vz 
1 1 1 36.6889 47.7815 16.0805 -0.195243 -0.107553 0.145654 
2 1 1 36.1963 48.4303 16.1903 0.0455721 0.132806 -0.141988 
3 1 1 35.9589 47.7698 15.5433 -0.00427599 -0.18246 0.0978895 
4 1 1 35.4885 48.6423 15.6612 0.0226337 -0.0518379 0.0584795 
5 1 1 36.6043 47.1501 15.4699 0.104105 0.117852 0.0602564 
6 1 1 35.2411 47.8779 14.9225 0.0154984 -0.00143105 0.106095 
7 1 1 34.8809 48.7757 14.9475 -0.121711 -0.0976565 0.0587035 
8 1 1 37.0694 48.3309 16.5814 -0.0345625 -0.175397 0.127243 
9 1 1 36.6829 49.196 16.8359 -0.137705 0.103109 -0.00574815 
10 1 1 35.9546 49.2267 16.3116 0.142043 -0.103402 0.0101687 
11 1 1 35.2451 49.4884 15.7233 -0.0693623 -0.0309958 -0.0207477 
12 1 1 34.7489 49.7176 15.1058 -0.078022 0.0575419 -0.0809116 
13 1 1 37.5765 47.5446 16.2433 0.0139642 0.175496 0.00505952 
14 1 1 37.1979 47.169 15.8269 -0.075489 0.0634973 0.0889759 
15 1 1 37.4129 46.6916 15.2957 -0.0863012 -0.0118296 -0.0527576 
16 1 1 35.8408 47.1078 14.7541 -0.0742207 -0.0643849 0.130447 
17 1 1 36.6725 46.6018 14.6486 0.11713 -0.0920535 -0.130899 
18 1 1 34.4911 49.43 14.469 0.173846 -0.0428997 -0.0455987 
19 1 1 34.4954 48.7669 13.9912 0.104317 0.19799 -0.0505776 
20 1 1 34.7505 48.0373 14.1565 -0.227651 -0.137106 0.0608479 
21 1 1 35.2327 47.3298 14.0554 0.116349 -0.0155856 0.0926152 
22 1 1 38.3807 47.5432 16.3578 0.2009 -0.000885933 0.0378007 
23 1 1 37.9406 48.3494 16.7944 -0.100369 0.0743461 0.113564 
24 1 1 37.575 49.1857 17.0638 -0.00280722 0.168025 -0.134341 
25 1 1 37.2795 49.9528 17.1469 -0.117131 0.119671 -0.012381 
26 1 1 36.4007 50.1855 16.7606 -0.0105944 -0.0370486 0.0442677 
27 1 1 35.6937 50.2084 16.2138 0.143742 0.0186754 0.00115089 
28 1 1 34.3609 50.1844 14.4448 0.137266 -0.0351846 0.0888391 
29 1 1 35.093 50.4795 15.6252 -0.00506319 -0.229146 -0.0736579 
30 1 1 34.625 50.7638 14.9495 0.112009 -0.100712 0.166387 
31 1 1 38.2004 46.8474 15.7802 0.133832 0.0700922 -0.0220613 
32 1 1 38.0635 46.294 15.0115 0.25245 0.0879941 -0.0607376 
33 1 1 37.4075 46.2026 14.4307 -0.034509 -0.0792946 0.0300059 
34 1 1 35.9321 46.6705 13.841 -0.0241877 -0.00446162 0.0711884 
35 1 1 36.8107 46.1915 13.8223 -0.0774398 0.0397773 0.0797529 
36 1 1 34.1315 49.6598 13.8236 -0.052583 0.113797 -0.0415424 
37 1 1 34.0811 49.0893 13.207 0.0194279 -0.0763372 -0.0719196 
38 1 1 34.0392 50.5008 13.6627 -0.155274 -0.132401 0.0977397 
39 1 1 34.404 48.2735 13.2385 -0.112509 -0.0550781 0.229625 
40 1 1 34.8015 47.6111 13.2832 -0.0183719 0.0470624 0.0947892 
41 1 1 35.4324 46.9115 13.0413 0.0389741 0.00251404 -0.172977 
42 1 1 39.0416 47.2671 16.1235 0.150014 -0.173094 0.0603368 
43 1 1 39.2473 47.9631 16.6293 0.0803892 -0.192376 -0.00944332 
44 1 1 38.7236 48.4937 16.9384 -0.163089 -0.00432616 -0.0678285 
45 1 1 38.3411 49.1 17.1428 0.0438935 0.0690039 0.00921208 
46 1 1 38.248 49.7754 17.254 0.0655674 -0.005273 0.141412 
47 1 1 38.0654 50.6093 17.2533 0.108013 0.0990433 0.0092306 
48 1 1 37.0598 50.8355 17.0367 -0.109398 -0.050694 -0.164219 
49 1 1 36.1446 51.1098 16.5674 -0.0503935 0.107261 0.0400086 
50 1 1 35.51 51.2504 15.964 0.0647692 -0.0794847 -0.133067 
51 1 1 34.2085 51.0237 14.1881 0.137494 0.0438428 0.00192635 
52 1 1 34.968 51.464 15.3238 -0.0505765 0.0667108 -0.254492 
53 1 1 34.5186 51.4203 14.7585 -0.225122 -0.0450728 -0.0593145 
54 1 1 39.1541 46.6696 15.598 -0.0170127 0.0483758 0.0388968 
55 1 1 40.0323 47.1435 15.7348 0.0860789 0.0964625 -0.0341336 
56 1 1 38.754 46.2401 15.1544 -0.0235805 0.00130261 -0.238714 
57 1 1 38.3514 45.9402 14.4187 -0.0298647 0.0526528 0.0318435 
58 1 1 39.6709 46.2065 14.8614 0.209881 -0.0170816 -0.0731772 
59 1 1 37.7274 45.8273 13.6311 -0.0181946 -0.0194267 0.0225799 
60 1 1 36.2141 46.3232 13.0133 -0.109981 -0.000860895 0.0881353 
61 1 1 37.1028 45.836 13.026 -0.161191 -0.0020182 -0.175629 
62 1 1 34.1497 48.5545 12.6439 -0.0735448 0.0727282 -0.187672 
63 1 1 33.926 49.8659 13.0418 0.131939 0.0529737 0.109173 
64 1 1 33.9144 49.336 12.3752 0.0459268 0.0203498 -0.209052 
65 1 1 33.975 51.3858 13.4776 0.0548273 -0.0272903 -0.071457 
66 1 1 33.8489 50.7308 12.8797 0.146675 0.0723831 0.0578382 
67 1 1 34.4268 48.0129 12.4312 0.00784508 -0.0926938 -0.0601727 
68 1 1 34.93 47.2962 12.25 0.177168 -0.104316 -0.124152 
69 1 1 35.717 46.5856 12.2243 -0.11236 0.100683 0.153477 
70 1 1 39.8577 47.7581 16.3238 0.0656513 -0.0441408 0.0970683 
71 1 1 39.7842 48.457 16.7849 -0.0655952 -0.00564582 0.0568656 
72 1 1 39.2487 49.3721 17.1445 0.0862869 -0.0247933 -0.0434321 
73 1 1 39.0259 50.3299 17.2128 -0.0775815 0.0548313 -0.000528737 
74 1 1 38.7237 51.2041 17.2148 0.2051 -0.10969 0.112934 
75 1 1 37.7564 51.4924 17.1142 0.019371 -0.00764046 0.0254885 
76 1 1 36.8325 51.7791 16.7924 -0.103236 0.133647 -0.0217229 
77 1 1 35.9716 52.0073 16.2363 -0.0759261 0.0464189 0.0730769 
78 1 1 35.415 52.1949 15.6033 -0.171657 0.134694 0.045753 
79 1 1 34.3373 51.883 14.1097 0.085157 -0.138392 -0.0204981 
80 1 1 34.8561 52.3107 14.8111 0.29628 -0.100387 -0.0357163 
81 1 1 34.1488 52.2247 13.2662 -0.0628363 0.0029382 -0.0939698 
82 1 1 40.7443 47.7537 15.7887 -0.133705 -0.137069 -0.0284242 
83 1 1 40.2649 46.6219 15.1103 -0.00577314 -0.0354221 0.00316392 
84 1 1 40.705 47.1183 15.3194 -0.0332036 0.121314 -0.132556 
85 1 1 39.3387 45.8684 14.411 0.116207 0.051474 -0.0719 
86 1 1 38.7589 45.7194 13.6097 -0.11783 -0.0881292 -0.0632617 
87 1 1 40.1315 45.9793 14.2961 -0.17656 0.0372059 0.0392279 
88 1 1 38.0531 45.6514 12.8619 0.0575124 -0.252723 -0.0832791 
89 1 1 36.5895 46.0401 12.1575 0.0991192 0.100012 -0.190872 
90 1 1 37.5605 45.7269 12.1677 -0.036866 0.212762 -0.0147064 
91 1 1 34.1416 48.625 11.6403 -0.148084 0.0215657 -0.0695755 
92 1 1 33.7963 50.1616 12.1332 0.0789339 0.0191562 -0.114375 
93 1 1 33.942 49.5322 11.4423 -0.193038 -0.0814614 0.181015 
94 1 1 33.8926 51.6457 12.6466 0.00673398 -0.104671 0.0964128 
95 1 1 33.8213 51.0024 11.9188 0.0430538 -0.101952 0.014962 
96 1 1 34.6321 47.8049 11.4067 0.0902735 0.0994404 -0.0302501 
97 1 1 35.272 46.9994 11.4647 -0.122367 0.0398074 -0.0831551 
98 1 1 36.206 46.3378 11.3435 0.0411182 -0.0167458 0.111859 
99 1 1 40.6003 48.389 16.3571 -0.174595 0.127448 0.116102 
100 1 1 40.4593 49.2536 16.8974 -0.00798213 0.134714 0.117373 
101 1 1 40.0663 50.114 17.0877 -0.043786 0.0522714 -0.0299102 
102 1 1 39.7643 51.0586 17.1264 0.147103 0.117931 0.00651035 
103 1 1 38.3983 51.9261 17.0248 -0.105745 -0.185871 0.0770237 
104 1 1 39.1346 51.8341 17.0232 -0.0790753 0.0455935 -0.123589 
105 1 1 37.6701 52.452 16.7346 0.0788296 0.0406296 0.226234 
106 1 1 36.5511 52.6514 16.2942 -0.0381121 -0.0838296 -0.00438288 
107 1 1 35.9151 52.8327 15.7024 0.0447806 0.169773 0.0223573 
108 1 1 35.435 52.8676 15.1748 -0.0627436 0.0177031 0.0730233 
109 1 1 34.111 52.5463 12.4735 0.054836 0.000522323 0.0379451 
110 1 1 34.6235 52.7561 13.9296 -0.237937 -0.0518947 0.00755953 
111 1 1 35.2112 53.1961 14.6315 -0.039821 -0.0413877 0.0995452 
112 1 1 34.5094 53.1155 13.0954 -0.0828511 -0.0517867 -0.259519 
113 1 1 41.2926 47.3535 15.0776 0.0266704 0.0334749 0.00999055 
114 1 1 41.3287 48.0983 15.6869 0.0695859 -0.0338612 0.157986 
115 1 1 41.0597 46.5998 14.4163 -0.0313853 0.00302933 -0.053785 
116 1 1 41.8419 47.1537 14.3455 0.171013 -0.0444839 -0.0653168 
117 1 1 39.7754 45.6379 13.5785 0.124065 -0.0270988 -0.132017 
118 1 1 39.2668 45.5194 12.7789 0.0374458 0.010998 -0.170241 
119 1 1 40.6542 46.0291 13.438 -0.0712831 0.0615593 0.0844151 
120 1 1 38.5614 45.6472 12.0072 -0.0542077 -0.208732 -0.108688 
121 1 1 37.1563 45.9006 11.3327 0.0786128 0.00159413 0.0919633 
122 1 1 38.1281 45.6885 11.3632 0.0992573 0.0219617 0.0129001 
123 1 1 34.5637 48.3598 10.6766 -0.00104929 0.107647 -0.0210911 
124 1 1 34.2364 49.0132 10.8507 0.0393986 0.107597 -0.052517 
125 1 1 33.9239 50.3008 11.3165 -0.0669979 0.0800717 -0.0316909 
126 1 1 34.1874 49.6287 10.5897 0.0799676 -0.147552 -0.0620424 
127 1 1 33.8722 51.9911 11.7709 -0.0281522 -0.100817 0.00890788 
128 1 1 33.8923 51.3904 11.1111 -0.0422232 0.16327 0.193628 
129 1 1 34.027 52.8703 11.6076 0.161815 0.0591044 0.118753 
130 1 1 36.776 46.2597 10.6362 0.0521488 -0.0373856 -0.198858 
131 1 1 35.021 47.5894 10.6527 0.00172536 0.0689418 -0.079197 
132 1 1 35.9405 46.8053 10.4499 0.154568 -0.109321 -0.125411 
133 1 1 41.3241 48.9526 16.3192 -0.0378739 0.0922763 -0.0741147 
134 1 1 41.029 49.8802 16.7745 0.0909712 -0.124437 0.0257137 
135 1 1 39.9067 51.8893 16.8458 -0.0501708 -0.136767 0.130127 
136 1 1 40.707 50.7224 16.9848 0.0193456 -0.141864 -0.000251386 
137 1 1 40.5666 51.5105 16.8822 0.0940923 -0.0228443 -0.148685 
138 1 1 38.6342 52.5942 16.7269 -0.00132549 -0.0495716 0.0852978 
139 1 1 39.5678 52.4256 16.7177 0.0330306 0.0727378 -0.118138 
140 1 1 38.2142 53.2438 16.3811 0.165448 -0.0843994 -0.0100964 
141 1 1 37.2002 53.3185 16.1776 -0.0141458 0.0155606 -0.165035 
142 1 1 36.474 53.2533 15.8579 0.0170155 -0.178622 0.0811347 
143 1 1 35.9762 53.5582 15.1356 0.0464301 0.049266 0.0170834 
144 1 1 34.4232 53.4443 12.2578 -0.0226469 0.159409 -0.173767 
145 1 1 34.9877 53.5347 13.8772 -0.017345 -0.070728 -0.144591 
146 1 1 35.523 53.804 14.3071 0.0760337 -0.0798291 -0.0530591 
147 1 1 34.8112 53.9359 13.028 -0.103818 0.0616061 -0.00326313 
148 1 1 42.0146 47.9174 14.9645 -0.00156891 0.127876 0.0810854 
149 1 1 41.964 48.6942 15.5671 -0.103749 0.0496723 0.121747 
150 1 1 41.5509 46.5152 13.4609 0.0361969 -0.0568142 0.0256828 
151 1 1 42.465 47.8453 14.3297 0.00859529 0.0416649 -0.072347 
152 1 1 42.33 47.2069 13.5033 0.122624 -0.132137 0.075943 
153 1 1 40.2501 45.6019 12.61 -0.167653 0.0769676 -0.1325 
154 1 1 39.5471 45.6159 11.8065 0.110203 0.0487323 -0.101132 
155 1 1 41.0322 46.0783 12.7198 -0.0918907 0.0276352 -0.159345 
156 1 1 38.8313 45.7439 11.1279 -0.0807508 -0.106841 -0.0606632 
157 1 1 37.6451 45.9679 10.545 -0.110183 -0.0389863 0.0782527 
158 1 1 38.3606 45.8644 10.6496 0.0507757 -0.151795 0.0818281 
159 1 1 34.939 48.2054 10.0581 0.00759302 0.163961 -0.185361 
160 1 1 34.5897 49.0993 10.0047 0.039337 -0.0196927 0.0984961 
161 1 1 34.3179 50.033 9.87514 0.0580057 -0.0241784 0.0886359 
162 1 1 34.0719 50.6921 10.3987 -0.0168167 -0.00459207 -0.0831468 
163 1 1 33.9494 52.289 10.9813 0.182875 -0.0310268 -0.0802337 
164 1 1 34.0002 51.7244 10.4485 0.115096 0.0214513 0.170628 
165 1 1 34.2791 53.6252 11.4082 0.112345 -0.0269515 0.192853 
166 1 1 34.0365 53.0451 10.9201 -0.0634646 0.189715 -0.0951833 
167 1 1 36.5973 46.5996 9.88016 -0.00829288 0.192306 -0.0771555 
168 1 1 37.2873 46.346 9.90069 0.0603651 0.161662 0.0354553 
169 1 1 35.4629 47.6601 9.82383 0.192879 0.00367626 0.0604427 
170 1 1 36.1197 47.2308 9.47677 0.0478271 -0.0697922 0.0582871 
171 1 1 41.9119 49.6831 16.1621 -0.0545449 -0.0592537 -0.0716091 
172 1 1 41.6657 50.5211 16.4975 -0.0354339 0.245787 0.0676043 
173 1 1 40.3515 52.3192 16.6166 -0.0508602 0.00410667 0.112812 
174 1 1 41.403 51.3603 16.4857 0.00324771 0.0568496 0.111575 
175 1 1 40.9926 51.9706 16.5208 0.0424616 0.0732636 -0.297818 
176 1 1 40.151 52.9532 16.3292 -0.0743599 -0.168966 -0.201837 
177 1 1 39.2488 53.1384 16.3652 0.042742 0.0483215 0.077814 
178 1 1 38.8299 53.8333 15.9149 -0.0590859 -0.128944 -0.0337471 
179 1 1 37.8985 53.8547 15.8706 -0.0318443 -0.00640819 0.188528 
180 1 1 36.9176 53.8397 15.5983 -0.033987 -0.0624329 -0.195449 
181 1 1 36.6519 54.2822 14.8996 -0.0922658 0.0211558 0.143237 
182 1 1 36.1802 54.3226 14.473 0.0220091 0.198677 -0.0707584 
183 1 1 34.7089 54.3026 12.0747 -0.0376005 0.0994084 0.13707 
184 1 1 34.4347 54.2993 11.108 0.0653529 -0.0163656 0.131468 
185 1 1 35.5103 54.465 13.6572 -0.0114521 0.0432161 -0.0804574 
186 1 1 35.138 54.5926 12.7418 0.0354298 -0.0475516 0.204323 
187 1 1 42.6185 48.7169 14.8469 -0.0948208 0.0874018 -0.0850525 
188 1 1 42.5209 49.5293 15.4514 0.0797571 0.0321154 0.108025 
189 1 1 41.892 46.5579 12.7195 0.0183819 -0.173374 -0.0639672 
190 1 1 42.4576 47.1034 12.5817 -0.00116576 0.0510596 -0.0713565 
191 1 1 42.9229 48.4788 14.2558 0.0831712 0.0609405 0.039719 
192 1 1 42.8802 48.0353 13.7097 -0.015557 0.0191034 -0.0730583 
193 1 1 42.7965 47.6726 12.9309 -0.200449 0.0246295 0.20545 
194 1 1 40.5538 45.8063 11.7337 0.09355 0.0752575 0.100874 
195 1 1 39.8683 45.9063 10.9766 0.0115642 -0.00566916 0.129306 
196 1 1 41.4317 46.2761 11.7938 -0.12693 0.0374485 -0.0537766 
197 1 1 39.1026 46.0928 10.2431 -0.210084 -0.0842881 0.0357707 
198 1 1 38.1873 46.2513 9.84884 0.0779273 0.00482848 -0.221286 
199 1 1 35.186 48.4766 9.46684 0.0155303 0.0335075 0.0961394 
200 1 1 35.0785 49.1144 9.11691 0.00582772 -0.064952 -0.000882511 
201 1 1 34.6393 49.7245 9.33979 0.173611 -0.183196 -0.0660286 
202 1 1 34.3855 50.6009 9.37146 -0.0179569 -0.085712 0.061634 
203 1 1 34.1332 51.5645 9.56157 0.0580265 0.138517 -0.0402525 
204 1 1 34.0686 52.6295 10.0234 -0.0529077 -0.148038 0.242292 
205 1 1 34.236 53.7584 10.307 0.0393604 0.0287521 0.0542531 
206 1 1 36.8944 46.972 9.2131 -0.0553757 0.0237524 -0.0259882 
207 1 1 37.8007 46.7365 9.18275 -0.192787 0.0630579 0.0398221 
208 1 1 35.7975 47.9891 9.07314 -0.434991 -0.132786 0.0243003 
209 1 1 36.6027 47.5962 8.73113 -0.0235417 0.143185 0.0470144 
210 1 1 42.347 50.4122 15.8417 -0.0347425 0.152379 0.0328299 
211 1 1 42.1295 51.1928 15.9942 0.186414 0.0227735 0.0715477 
212 1 1 40.9743 52.6631 16.1269 0.0401126 0.0525556 0.0303918 
213 1 1 41.756 52.1561 15.9267 -0.0353892 -0.0348085 0.0280478 
214 1 1 40.7431 53.3891 15.7941 0.0282002 0.189767 0.00390529 
215 1 1 39.765 53.6576 15.9406 0.0878877 -0.0361554 0.0447281 
216 1 1 34.4666 54.6926 10.4302 -0.209795 -0.0238413 -0.00644264 
217 1 1 34.7721 55.0289 11.3278 -0.0905258 0.154137 -0.0126168 
218 1 1 39.4311 54.3333 15.3732 -0.00830618 0.10264 0.0240672 
219 1 1 38.493 54.5154 15.2668 -0.00759623 -0.0732434 0.0117353 
220 1 1 37.5193 54.5032 15.0626 -0.038234 -0.225742 -0.0457223 
221 1 1 36.8529 54.8762 14.3509 0.131385 0.0456862 0.0485711 
222 1 1 36.3185 55.0792 13.6805 -0.00897354 0.156392 0.115352 
223 1 1 35.1778 55.1276 12.1411 0.0663514 -0.234202 -0.0190469 
224 1 1 35.7574 55.2044 12.8795 0.0670291 0.0545063 -0.0382783 
225 1 1 42.8882 50.389 15.0035 -0.0754356 -0.118188 0.0325276 
226 1 1 43.1011 49.4386 14.4284 -0.239025 0.083859 0.0831012 
227 1 1 42.1106 46.7995 11.7452 0.00140023 -0.0142848 -0.0405342 
228 1 1 42.6482 47.3399 11.8301 0.0120108 -0.027208 0.101971 
229 1 1 42.966 47.7582 12.2824 -0.0494425 -0.173243 0.0528538 
230 1 1 43.313 48.8209 13.6305 -0.0351545 -0.0607294 -0.00691561 
231 1 1 43.1796 48.2681 12.8765 -0.0172603 0.159383 0.0741502 
232 1 1 40.893 46.2205 10.9623 0.102784 0.0701068 -0.0938113 
233 1 1 40.1958 46.3828 10.2275 0.0532025 0.0573814 -0.000705318 
234 1 1 41.6763 46.7303 10.925 0.00533525 -0.00588642 -0.185976 
235 1 1 39.8632 46.6239 9.47918 -0.0731166 -0.0952973 -0.0772829 
236 1 1 38.7866 46.5684 9.29925 -0.127864 -0.0335279 -0.0947369 
237 1 1 35.5997 48.7345 8.74349 0.060348 -0.0387739 0.0456135 
238 1 1 35.2796 49.6191 8.37757 0.166734 0.0336648 0.0122412 
239 1 1 34.8268 50.4594 8.67345 -0.141019 0.07125 -0.148163 
240 1 1 34.4736 51.3544 8.77345 0.00449854 0.128108 -0.0704767 
241 1 1 34.2061 52.3458 8.96924 -0.0645285 -0.0973099 0.0439897 
242 1 1 34.246 53.3544 9.21993 0.0435566 -0.0351523 -0.111086 
243 1 1 34.3825 54.3371 9.47148 -0.0630823 0.121578 0.192651 
244 1 1 37.5838 47.3194 8.59792 -0.147445 0.00728065 0.109791 
245 1 1 38.5561 47.1181 8.64215 0.0860856 -0.0827596 -0.15422 
246 1 1 36.3183 48.4416 8.28971 -0.127866 0.0883921 0.0028781 
247 1 1 37.2319 48.0089 8.1497 0.225043 0.0112922 0.0109072 
248 1 1 42.6489 51.1522 15.3235 0.00955216 -0.0403993 -0.00190373 
249 1 1 42.3689 51.7864 15.4154 -0.112595 -0.0104986 0.0208516 
250 1 1 41.6415 53.0111 15.5486 0.0111436 0.022251 -0.182633 
251 1 1 42.292 52.4796 15.1499 -0.0122138 0.0306377 -0.0435963 
252 1 1 41.2435 53.8031 15.1112 0.16647 0.073528 0.125838 
253 1 1 40.3088 54.1041 15.3067 0.00367026 0.00349137 -0.036219 
254 1 1 34.542 55.3239 9.66323 -0.105421 0.038013 0.122494 
255 1 1 34.7773 55.5918 10.6047 0.043886 0.119903 0.0642604 
256 1 1 35.1997 55.8794 11.4029 -0.14032 -0.0886071 0.0449176 
257 1 1 39.9707 54.7623 14.8093 0.0384581 0.0222044 0.114035 
258 1 1 39.1404 54.9417 14.7947 0.0422223 -0.118604 -0.130746 
259 1 1 38.3745 54.9738 14.6969 0.0687926 -0.00664208 -0.014518 
260 1 1 37.7506 55.3098 14.2146 -0.114473 -0.0409949 0.00785267 
261 1 1 37.1173 55.5753 13.6412 -0.0703161 0.0683994 -0.0542857 
262 1 1 36.455 55.7736 12.9358 0.0791375 -0.0719258 0.0343316 
263 1 1 35.8018 55.8712 12.1881 0.0546562 -0.0432464 0.0183308 
264 1 1 43.0525 51.0012 14.6718 0.0563979 -0.137926 -0.204839 
265 1 1 43.3298 50.3982 14.1425 -0.0802199 -0.132456 0.0548757 
266 1 1 43.5725 49.7003 13.3949 -0.0675186 -0.0503997 0.125389 
267 1 1 42.3158 47.323 10.8875 -0.0438711 -0.0236734 -0.0901541 
268 1 1 42.9789 47.9189 11.4318 -0.124096 0.0960711 -0.0410745 
269 1 1 43.3398 48.4523 12.0367 0.0843693 -0.264646 -0.0909885 
270 1 1 43.5558 48.9844 12.7257 -0.044247 -0.0852697 0.0370873 
271 1 1 41.0584 46.6682 10.2692 -0.08839 0.0504852 0.169558 
272 1 1 40.5753 46.782 9.67663 -0.0101763 0.0716866 0.00871728 
273 1 1 41.679 47.1273 10.2436 -0.193165 0.0712457 -0.0489543 
274 1 1 40.4449 47.1651 9.09125 0.076189 -0.152536 -0.219165 
275 1 1 39.5356 47.0874 8.83251 -0.103631 -0.0344685 0.0151609 
276 1 1 36.0545 49.124 7.89509 -0.0246112 -0.0174658 -0.0539716 
277 1 1 35.8736 49.7186 7.56031 -0.0966254 0.166629 -0.0442593 
278 1 1 35.3381 50.432 7.66356 0.00525991 -0.0687992 0.00424196 
279 1 1 34.9297 51.1507 7.85197 0.112623 -0.226813 0.0158337 
280 1 1 34.5841 52.0189 8.1295 -0.0662938 -0.108458 0.0568012 
281 1 1 34.3924 52.9704 8.28588 -0.013123 -0.185144 0.1607 
282 1 1 34.3586 54.0264 8.58288 0.0203854 -0.111226 0.12443 
283 1 1 34.3758 55.0448 8.78936 0.12672 -0.0260749 -0.00717062 
284 1 1 38.1661 47.7955 8.06979 0.0638695 0.109912 0.0773956 
285 1 1 39.1311 47.6526 8.07968 0.030857 -0.0968235 0.113134 
286 1 1 36.9014 48.6441 7.69246 -0.0392791 -0.131232 -0.158992 
287 1 1 37.8315 48.3988 7.54766 -0.0646467 -0.0116416 -0.131443 
288 1 1 42.817 51.9194 14.6335 -0.103005 -0.0213696 -0.0385349 
289 1 1 42.0317 53.3342 14.8447 0.104853 0.0123047 0.0470852 
290 1 1 42.5098 52.8242 14.6157 0.00947256 -0.0255102 -0.137971 
291 1 1 34.6279 56.0896 8.94113 -0.0570236 0.0645382 0.120945 
292 1 1 41.6922 54.2305 14.3812 -0.0194961 0.0305808 -0.00842561 
293 1 1 40.8732 54.5574 14.6228 0.0205959 -0.104251 -0.0786427 
294 1 1 34.8874 56.225 9.80133 0.160748 -0.08397 -0.0402833 
295 1 1 35.2763 56.4786 10.6375 0.144535 -0.0130985 0.144678 
296 1 1 35.825 56.5627 11.5292 0.0880976 -0.0501587 -0.0265173 
297 1 1 40.3797 55.3069 14.1993 0.0797639 0.0241695 0.0714029 
298 1 1 39.6518 55.3098 14.4089 -0.123429 0.0955587 -0.130797 
299 1 1 38.7344 55.6185 14.0557 0.0619178 0.00764132 -0.0237178 
300 1 1 37.9422 56.0497 13.4991 0.0715827 -0.255352 0.0537389 
301 1 1 37.2741 56.3277 12.9924 0.020033 0.235265 -0.0330474 
302 1 1 36.5348 56.4938 12.2588 -0.0976373 -0.156022 0.00717659 
303 1 1 43.7299 49.9532 12.5486 0.0469988 -0.0481465 -0.0489059 
304 1 1 43.2957 51.2444 14.0464 0.0361549 0.133291 0.0162208 
305 1 1 43.6357 50.6164 13.3609 0.0263199 -0.0630827 -0.00337653 
306 1 1 42.1478 47.6425 9.98682 -0.0841616 -0.11597 -0.115678 
307 1 1 42.7915 48.1059 10.5583 -0.0843863 0.0310064 0.0481741 
308 1 1 43.2978 48.6571 11.1233 -0.0910758 -0.22828 -0.0266926 
309 1 1 43.5705 49.2732 11.8568 -0.0308438 0.0753697 0.0467155 
310 1 1 41.3323 47.3534 9.48089 -0.0619612 0.186915 -0.0605935 
311 1 1 40.9381 47.7543 8.76056 0.103521 0.0246947 -0.17794 
312 1 1 40.1265 47.7131 8.27131 -0.0967145 -0.0937834 0.0950413 
313 1 1 36.5955 49.4487 7.20179 0.0239591 -0.083553 -0.0143658 
314 1 1 35.996 50.2725 7.07138 0.0596273 0.113329 -0.122376 
315 1 1 35.3935 51.0779 7.03957 0.0124151 0.0742461 0.0160371 
316 1 1 35.0213 51.9338 7.18018 0.000610822 0.0421456 0.133104 
317 1 1 34.7052 52.8068 7.43171 0.0637698 -0.0968901 0.161234 
318 1 1 34.4745 53.7547 7.63101 0.0669947 -0.0949616 0.188174 
319 1 1 34.3913 54.8154 7.84231 0.0888014 -0.113912 -0.0974272 
320 1 1 34.4772 55.7416 8.03633 0.0390236 0.0464378 -0.00816209 
321 1 1 38.7934 48.1642 7.57122 0.109203 -0.242148 -0.100196 
322 1 1 39.4381 48.0851 7.53991 -0.0247573 0.137219 -0.144092 
323 1 1 37.5487 49.0274 7.07013 -0.000128981 0.0450312 0.0397595 
324 1 1 38.301 48.6695 7.16211 -0.0252904 -0.0427746 -0.0175323 
325 1 1 43.2704 51.9632 13.8049 0.0941754 -0.038044 0.0380114 
326 1 1 43.013 52.6694 13.9791 0.0170625 -0.0079796 -0.0740319 
327 1 1 42.4416 53.6136 14.0179 0.021842 -0.0202066 0.165161 
328 1 1 42.0037 54.5026 13.7685 0.141243 0.0738774 0.0948607 
329 1 1 34.7527 56.7589 8.15286 -0.0724229 -0.211841 -0.0331505 
330 1 1 35.0369 57.0157 9.02073 0.113779 -0.0630322 -0.0993107 
331 1 1 41.2921 55.052 13.9395 -0.00473843 0.107327 -0.0791894 
332 1 1 35.4122 57.0712 9.92427 -0.0300093 -0.0268953 0.0639597 
333 1 1 35.9484 57.1232 10.7836 -0.0368468 -0.0359989 0.0772693 
334 1 1 36.6325 57.2425 11.5065 0.0819451 0.0130583 0.0285428 
335 1 1 40.7675 55.7275 13.6955 -0.0976181 0.14406 -0.125745 
336 1 1 39.8183 56.0183 13.7144 0.0262974 -0.211992 -0.0693319 
337 1 1 38.9168 56.4494 13.3121 0.00561653 0.19012 -0.280669 
338 1 1 38.1055 56.7899 12.9041 -0.0650998 0.040014 -0.0288035 
339 1 1 37.3407 57.0625 12.2705 0.0195153 0.0271456 -0.114371 
340 1 1 42.1046 48.0785 9.43726 0.0882192 0.0885412 -0.128442 
341 1 1 43.73 50.1722 11.672 -0.0306424 0.0229892 -0.0774745 
342 1 1 43.8574 50.8348 12.2742 -0.10688 -0.0903374 0.0191937 
343 1 1 43.6415 51.5345 13.0101 -0.00540786 0.128553 -0.000599529 
344 1 1 42.6035 48.4177 9.81177 -0.174931 -0.0648897 -0.0191671 
345 1 1 43.177 49.0333 10.2873 0.00237026 -0.0500382 -0.091151 
346 1 1 43.573 49.5679 10.9585 0.0313145 0.0141048 0.0329056 
347 1 1 43.7277 50.361 10.8231 0.0905832 -0.00139781 0.160661 
348 1 1 41.5885 48.0724 8.86312 -0.0907499 0.099679 -0.0220795 
349 1 1 41.002 48.2849 8.18314 -0.00816361 0.0143843 0.104736 
350 1 1 40.264 48.4771 7.42219 0.0848515 -0.073806 -0.0397839 
351 1 1 37.3811 49.6764 6.61397 0.0292304 0.0986216 0.125068 
352 1 1 36.7843 50.1989 6.52863 -0.0817401 0.0294563 -0.0013913 
353 1 1 36.1436 50.8848 6.36947 0.0200453 -0.0923456 -0.252313 
354 1 1 35.6155 51.7094 6.37006 -0.0587379 -0.0435929 -0.0519416 
355 1 1 35.1204 52.5848 6.56649 -0.158084 0.0584888 -0.0708841 
356 1 1 34.8023 53.4173 6.71706 -0.00889822 0.086876 0.0159338 
357 1 1 34.5718 54.3849 6.92142 0.232765 -0.0650794 -0.188435 
358 1 1 34.4891 55.4924 7.11056 0.0621962 -0.00681779 0.0123254 
359 1 1 34.6205 56.5358 7.2742 0.00865914 0.0176918 0.199488 
360 1 1 39.3338 48.8264 6.92037 0.0370366 0.123758 0.0773926 
361 1 1 38.3087 49.3593 6.55049 -0.118644 -0.00882941 -0.0831874 
362 1 1 43.4396 52.4298 13.1811 -0.110247 -0.0514967 0.0671369 
363 1 1 43.1341 53.2907 13.2717 0.123016 -0.0585834 -0.116983 
364 1 1 42.6404 54.295 13.2166 0.0855524 0.200303 0.018241 
365 1 1 42.0228 55.0386 13.3429 0.209782 0.182729 0.0769824 
366 1 1 34.9805 57.5383 7.5822 -0.0649597 -0.0603583 0.0203012 
367 1 1 35.2105 57.6711 8.42772 -0.100808 -0.017491 0.138259 
368 1 1 35.6496 57.826 9.32783 -0.0395276 -0.162729 -0.0852307 
369 1 1 41.4315 55.8151 13.2492 0.134167 0.226167 0.0772976 
370 1 1 36.0721 57.8339 10.19 0.0409671 0.00543549 -0.152525 
371 1 1 36.678 57.9105 10.9264 0.050983 0.0668156 0.141987 
372 1 1 37.5004 57.8199 11.6526 -0.0397978 0.0308829 -0.0292129 
373 1 1 40.6847 56.3342 13.1827 0.0513724 0.131579 -0.0433796 
374 1 1 39.863 56.7651 12.9638 0.196234 0.0848722 0.0834165 
375 1 1 39.0099 57.1629 12.6328 -0.0047428 -0.181581 -0.121224 
376 1 1 38.1866 57.4843 12.235 0.202008 0.093486 0.199556 
377 1 1 42.3644 48.738 8.88958 -0.0181753 -0.0725519 -0.00321848 
378 1 1 43.9172 50.9628 11.3512 -0.0649422 0.0268209 -0.0229222 
379 1 1 43.9362 51.4531 11.9229 0.0189212 -0.0965147 0.1192 
380 1 1 43.8341 52.2447 12.2206 0.0535418 -0.223141 0.0049909 
381 1 1 43.0417 49.3375 9.41981 0.00554369 0.0588188 0.0988936 
382 1 1 43.4396 49.8178 10.087 0.0685649 0.0408488 -0.0773596 
383 1 1 43.712 50.6779 9.95425 -0.189516 -0.165004 -0.0792465 
384 1 1 43.8609 51.0527 10.6305 -0.0983832 0.0981813 -0.0853616 
385 1 1 41.6954 48.7416 8.15304 0.06732 0.304848 -0.221886 
386 1 1 40.9874 48.876 7.44068 -0.202671 -0.107997 -0.236495 
387 1 1 40.1983 49.2172 6.76091 -0.119739 0.0776997 0.0319267 
388 1 1 37.6465 50.1436 6.12192 -0.0644809 -0.117663 0.0734235 
389 1 1 36.9523 50.796 5.85798 0.0755469 0.00369252 0.103014 
390 1 1 36.2729 51.5832 5.75275 0.047322 -0.0901092 0.0739943 
391 1 1 35.7295 52.4354 5.79084 -0.0347467 -0.104037 -0.0220707 
392 1 1 35.2936 53.2644 5.83921 0.0558612 -0.0546967 -0.118491 
393 1 1 34.9734 54.1158 6.00958 -0.0453831 -0.064114 0.0921854 
394 1 1 34.6927 55.0346 6.2653 -0.0787467 -0.134351 0.0253427 
395 1 1 34.583 56.1086 6.36455 -0.0152556 0.113249 -0.0363031 
396 1 1 34.8207 57.1671 6.6265 -0.0205413 -0.00480211 -0.0667839 
397 1 1 39.3678 49.6673 6.21359 -0.0625472 0.129145 0.0140949 
398 1 1 38.553 50.1578 5.82977 -0.0223586 0.115326 -0.0342309 
399 1 1 43.6261 53.0695 12.4408 -0.0188625 0.00892767 0.0751944 
400 1 1 43.1996 53.9806 12.5449 -0.116292 0.0635123 0.00103926 
401 1 1 42.7156 54.888 12.5959 0.10124 0.00563756 -0.153685 
402 1 1 35.0334 58.0887 6.77503 -0.0523174 -0.0604491 -0.123426 
403 1 1 42.1833 55.7077 12.6712 -0.0263766 -0.0398991 0.0307936 
404 1 1 35.3074 58.4704 7.60282 -0.0589532 -0.0288074 -0.0705684 
405 1 1 35.6832 58.5034 8.60113 0.0612926 0.0997946 -0.148817 
406 1 1 36.1775 58.5986 9.4666 0.0723858 0.161784 -0.0364849 
407 1 1 41.4635 56.4454 12.6398 -0.0908056 0.0527767 -0.0525054 
408 1 1 36.7767 58.6247 10.2445 -0.0655223 -0.0791083 0.00793168 
409 1 1 37.4615 58.5806 10.9747 0.0171846 -0.0026284 -0.0283052 
410 1 1 38.3377 58.2133 11.5643 -0.0314525 0.0890033 0.0863982 
411 1 1 40.7429 57.0685 12.524 0.0180372 0.0844046 -0.00400377 
412 1 1 39.9732 57.5237 12.294 0.0658194 -0.0428075 0.0413387 
413 1 1 39.198 57.9954 11.9704 0.310701 -0.0128606 0.129352 
414 1 1 42.898 49.6408 8.72167 -0.00621933 -0.039479 -0.0325937 
415 1 1 42.3163 49.4986 8.10135 -0.0361986 -0.0502437 0.192862 
416 1 1 43.9652 51.915 11.1807 -0.111379 0.135274 -0.136389 
417 1 1 43.948 52.8196 11.4279 0.0681522 0.148546 -0.1004 
418 1 1 43.3699 50.2168 9.13262 0.00858098 -0.00948174 -0.00314387 
419 1 1 43.7262 51.0461 9.17245 -0.107571 -0.196638 0.0501072 
420 1 1 43.9743 51.73 10.0089 0.200802 -0.193546 -0.0077867 
421 1 1 41.7677 49.5185 7.48897 0.0171115 -0.127878 -0.041191 
422 1 1 41.1451 49.6869 6.80441 -0.0163021 -0.0232019 -0.198003 
423 1 1 40.3414 49.903 6.20188 -0.0225306 0.114924 -0.170043 
424 1 1 37.8766 50.8087 5.44312 0.0107969 0.0732142 -0.0971174 
425 1 1 37.0745 51.4996 5.15297 0.0136126 0.014303 -0.000292812 
426 1 1 36.4254 52.2783 5.11499 0.0665011 0.133505 -0.0320309 
427 1 1 35.9313 53.1084 5.0906 0.0730183 0.0219655 0.0650954 
428 1 1 35.5038 53.9787 5.18119 0.0797352 0.0285551 -0.107923 
429 1 1 34.8845 57.8651 5.93409 0.158146 -0.00733267 0.260886 
430 1 1 35.0572 54.8767 5.3948 -0.0757469 -0.0653339 -0.0868861 
431 1 1 34.8663 55.7863 5.49834 0.0743825 0.185231 0.0506574 
432 1 1 34.6827 56.8563 5.72602 -0.0602382 0.202094 -0.0224455 
433 1 1 39.5235 50.3265 5.58966 0.0874383 0.130251 -0.00911028 
434 1 1 38.7585 50.9222 5.11529 -0.217799 0.191209 0.0332117 
435 1 1 43.6624 53.8102 11.7514 -0.0696388 0.0369281 -0.0756326 
436 1 1 43.2515 54.7042 11.851 0.0223766 0.0486283 0.0359679 
437 1 1 42.7554 55.5974 11.9681 -0.0469754 0.12528 -0.0916063 
438 1 1 35.0945 58.8422 6.12226 -0.0491649 -0.0530125 -0.0588322 
439 1 1 35.444 59.1487 6.99336 0.0823136 -0.104829 0.00501327 
440 1 1 42.2538 56.4375 11.9875 -0.0591771 -0.0115568 0.138991 
441 1 1 35.8374 59.2757 7.99201 0.0226404 0.146077 0.0950697 
442 1 1 36.3474 59.2904 8.76313 -0.0305917 -0.164058 -0.101762 
443 1 1 36.9717 59.3241 9.5201 -0.126373 0.0193039 0.0298947 
444 1 1 41.5796 57.1871 11.9566 -0.200271 -0.0217956 -0.11678 
445 1 1 37.5848 59.226 10.2391 -0.0184302 0.0793787 0.00503996 
446 1 1 38.3923 59.001 10.9222 0.0443475 -0.0950063 -0.0733357 
447 1 1 39.2575 58.7093 11.3418 0.110307 0.0418271 0.0580328 
448 1 1 40.9058 57.7636 11.8682 -0.0387453 0.0542393 0.027887 
449 1 1 40.104 58.2724 11.6828 0.0835274 -0.132169 -0.0195248 
450 1 1 43.0315 50.1976 8.22338 -0.0885085 0.0577483 -0.0851351 
451 1 1 42.5113 50.2209 7.47079 -0.0772897 -0.0877347 0.098954 
452 1 1 44.1202 52.6668 10.4291 -0.0983045 -0.0135639 -0.00922584 
453 1 1 43.9991 53.5556 10.8896 -0.0612297 -0.250917 0.139835 
454 1 1 43.5259 50.9302 8.40694 0.0152408 -0.152954 0.00634528 
455 1 1 43.8831 51.7163 8.93316 -0.0697153 0.0185327 -0.140178 
456 1 1 44.1545 52.6194 9.32782 0.0365599 0.100114 -0.0459697 
457 1 1 41.9451 50.2976 6.80326 0.0326602 0.00691464 -0.00109552 
458 1 1 41.214 50.4465 6.10822 0.113079 -0.00115344 0.0296394 
459 1 1 40.4436 50.6013 5.5507 0.0988603 -0.00538152 0.13345 
460 1 1 37.9389 51.4843 4.79711 -0.0530547 0.0220068 0.121445 
461 1 1 37.2595 52.2001 4.51886 0.025522 0.128537 -0.0618509 
462 1 1 36.6519 52.9711 4.34247 0.0638531 0.0148311 0.0588069 
463 1 1 36.1125 53.7456 4.39668 0.0425214 0.0797826 -0.136068 
464 1 1 35.5993 54.5934 4.46715 -0.180406 -0.0713006 -0.164678 
465 1 1 34.9536 58.5537 5.23274 0.0324782 0.0546055 -0.130345 
466 1 1 34.8476 57.5654 5.0527 -0.196979 -0.0741556 -0.152726 
467 1 1 35.1396 55.5172 4.60683 -0.0677388 0.0634454 0.0577394 
468 1 1 34.9534 56.5188 4.7734 0.117836 0.078662 0.047514 
469 1 1 39.6356 51.0523 4.90751 -0.0893059 -0.0192931 0.0854689 
470 1 1 38.7949 51.6172 4.43251 -0.0487446 -0.0719567 -0.00537555 
471 1 1 43.7227 54.4564 11.0125 -0.0520401 0.0372586 0.0379294 
472 1 1 43.3149 55.415 11.171 0.171758 -0.190429 0.0554806 
473 1 1 42.8796 56.3131 11.2478 0.0315 0.115051 0.0464369 