ITEM: TIMESTEP
0
ITEM: NUMBER OF ATOMS
51222
ITEM: BOX BOUNDS pp pp pp
0 62
0 62
0 62
ITEM: ATOMS id mol type x y z vx vy vz 
1 1 1 30.7679 20.4455 6.94939 0.19194 0.144244 -0.0381208 
2 1 1 30.4446 21.045 7.48349 0.101748 -0.232149 -0.0259318 
3 1 1 30.6252 20.1168 7.76897 0.0806247 -0.00683824 0.239502 
4 1 1 30.2251 20.726 8.31687 -0.0309433 -0.0904539 -0.103882 
5 1 1 30.8822 19.5078 7.10846 -0.12546 0.0648116 0.196741 
6 1 1 30.3231 19.7141 8.56771 -0.0248707 -0.0647492 -0.0599336 
7 1 1 29.808 20.2813 9.17515 -0.106677 -0.0723475 -0.122805 
8 1 1 30.5683 21.1923 6.53786 0.00319648 -0.0437877 -0.0309897 
9 1 1 30.1162 21.8926 7.0539 0.00854157 0.0075243 0.0552802 
10 1 1 29.9751 21.6332 7.94611 -0.0577873 -0.0251225 0.0166396 
11 1 1 29.7118 21.2688 8.76486 0.0210751 0.0283954 0.0686266 
12 1 1 29.2427 21.0338 9.46323 -0.0178019 0.0349738 -0.0827516 
13 1 1 30.8443 20.4167 6.00603 -0.043416 -0.0966964 -0.181008 
14 1 1 30.9446 19.8138 6.43511 0.142223 0.0512791 0.0503845 
15 1 1 30.9824 19.0791 6.31232 0.0330215 0.0583799 -0.0169997 
16 1 1 30.6551 19.132 7.91547 -0.0807389 -0.0875601 0.00954617 
17 1 1 30.8393 18.566 7.13512 0.0471937 0.0255455 0.0344726 
18 1 1 29.1642 20.3533 9.81862 0.0408035 -0.0939156 0.166114 
19 1 1 29.3771 19.5785 9.78445 0.0720129 0.0732073 0.0453206 
20 1 1 29.8762 19.2269 9.26921 -0.0408629 -0.0948871 -0.134824 
21 1 1 30.259 18.7062 8.67255 -0.082674 -0.101131 0.114574 
22 1 1 30.7406 20.5362 5.27621 -0.0393212 0.0937939 -0.0660972 
23 1 1 30.4931 21.3711 5.75507 -0.100313 -0.064568 0.0120034 
24 1 1 30.0968 22.0798 6.18787 0.133375 -0.0869211 0.0273581 
25 1 1 29.641 22.6119 6.59463 0.114158 -0.0931042 0.0702445 
26 1 1 29.5057 22.4914 7.53373 -0.0179968 -0.123923 -0.100233 
27 1 1 29.2908 22.209 8.40546 0.0569769 -0.0811829 0.14672 
28 1 1 28.5909 20.8319 10.08 -0.17685 -0.0626965 -0.148724 
29 1 1 28.9396 21.9148 9.13662 -0.00942346 -0.0647245 0.0552976 
30 1 1 28.4417 21.5971 9.78077 -0.0959571 -0.0387693 -0.0854036 
31 1 1 30.9337 19.5965 5.47924 0.116257 0.200751 0.135515 
32 1 1 30.9362 18.6432 5.70797 -0.0501342 -0.157495 0.0807363 
33 1 1 30.8606 18.1401 6.37229 -0.0322637 0.0177129 0.0120763 
34 1 1 30.5111 18.0812 7.92024 -0.0140751 0.121956 -0.133965 
35 1 1 30.6379 17.6367 7.03705 -0.0621022 0.0473068 0.0335956 
36 1 1 28.711 19.9837 10.2487 -0.0639161 -0.0730232 0.0346916 
37 1 1 28.7442 19.1216 10.2953 -0.045353 0.142761 -0.0230647 
38 1 1 28.0058 20.4086 10.5431 -0.110661 -0.177012 -0.115962 
39 1 1 29.2866 18.6391 9.83557 0.104487 0.0790542 0.114398 
40 1 1 29.673 18.2125 9.34808 -0.201125 0.0145941 -0.0717635 
41 1 1 30.0088 17.6399 8.63702 0.000176471 -0.10055 0.00895763 
42 1 1 30.6939 20.1 4.67289 -0.00792883 -0.00945707 0.0603162 
43 1 1 30.3677 20.935 4.41519 -0.0511117 -0.112082 -0.0153882 
44 1 1 30.2662 21.5256 4.92174 -0.022033 0.0920174 -0.0138858 
45 1 1 30.072 22.0338 5.43892 0.0578424 0.0215943 -0.0999258 
46 1 1 29.6168 22.629 5.59379 0.0480965 -0.107716 0.141969 
47 1 1 29.0794 23.1561 5.93128 -0.0559982 0.105421 0.0135522 
48 1 1 28.9866 23.1443 6.96007 0.058581 0.105741 -0.115001 
49 1 1 28.7608 22.9655 7.95845 -0.0213892 0.105754 -0.0996081 
50 1 1 28.455 22.6898 8.75822 -0.0984059 0.116615 -0.0291148 
51 1 1 27.8513 21.2474 10.302 -0.014314 -0.00921758 0.0110719 
52 1 1 28.0645 22.3339 9.44858 0.0129975 -0.0332265 -0.0505928 
53 1 1 27.7869 21.8673 9.97203 -0.0610094 0.153752 -0.013119 
54 1 1 30.733 19.3644 4.54859 0.0213726 -0.0214821 0.109278 
55 1 1 30.3401 19.7719 3.72214 0.17008 -0.0184836 -0.169845 
56 1 1 30.8327 18.7615 4.97764 -0.0190937 0.0554918 -0.09915 
57 1 1 30.7762 17.9692 5.42979 0.037586 -0.0643514 -0.0372586 
58 1 1 30.5217 18.4575 4.16112 0.0130759 -0.0727908 0.049233 
59 1 1 30.5943 17.2879 6.11488 -0.0250433 0.0993481 -0.102984 
60 1 1 30.2185 17.1331 7.77057 -0.0644737 0.324233 -0.127385 
61 1 1 30.2996 16.7829 6.77132 0.059903 0.0285859 -0.069279 
62 1 1 28.7161 18.3807 10.2287 -0.0351038 -0.0975829 -0.0294005 
63 1 1 28.0771 19.5385 10.6566 -0.0288783 -0.0684641 -0.130686 
64 1 1 28.0601 18.6499 10.639 0.110122 0.126469 -0.19436 
65 1 1 27.2333 20.8877 10.6731 0.0403665 -0.148935 0.00382209 
66 1 1 27.3417 19.9714 10.8797 0.107196 -0.127956 0.0137609 
67 1 1 28.9574 17.8383 9.89963 -0.0184794 0.0826453 0.101972 
68 1 1 29.3511 17.2592 9.25654 0.32057 -0.226714 -0.0656116 
69 1 1 29.6661 16.7475 8.42971 0.0202402 0.263901 -0.0843472 
70 1 1 30.274 20.5689 3.92206 0.0312627 0.103623 0.117835 
71 1 1 29.9602 21.3884 3.98795 -0.112798 0.0610663 0.0292294 
72 1 1 29.6152 22.2995 4.56866 0.0308135 -0.0232557 0.0142409 
73 1 1 29.0333 23.0164 4.94375 -0.0324599 -0.032252 -0.0103548 
74 1 1 28.4753 23.5097 5.40715 0.0928937 0.0252425 0.0043676 
75 1 1 28.3806 23.6167 6.36376 0.105872 0.136507 -0.0431554 
76 1 1 28.1885 23.5433 7.38137 0.118942 0.125045 -0.0346507 
77 1 1 27.9101 23.2956 8.3147 -0.048871 -0.00652237 0.0177161 
78 1 1 27.5562 22.9926 9.02066 -0.219096 0.0330305 0.0594447 
79 1 1 27.1262 21.7123 10.3117 0.0416948 0.164538 -0.0249473 
80 1 1 27.0943 22.5171 9.72666 0.055771 -0.0746533 -0.200433 
81 1 1 26.425 21.3094 10.6496 0.112109 0.0213949 0.113124 
82 1 1 29.8097 20.1594 3.03803 0.137752 0.0815698 -0.128147 
83 1 1 30.2874 18.9322 3.5876 0.0134266 -0.039217 0.0891715 
84 1 1 29.9698 19.4274 3.10723 -0.0305789 -0.243181 -0.135738 
85 1 1 30.5448 17.9436 4.51808 -0.00371121 -0.0103606 -0.127776 
86 1 1 30.426 17.1605 5.12047 -0.00280757 0.0842234 -0.0994686 
87 1 1 30.1821 17.9583 3.71784 -0.0824618 -0.0332792 0.00538186 
88 1 1 30.1485 16.4784 5.80521 0.00083152 -0.129462 -0.0753692 
89 1 1 29.7925 16.2827 7.48046 -0.0046882 -0.180608 -0.104659 
90 1 1 29.7713 15.9762 6.41312 0.0816805 -0.0936139 0.117546 
91 1 1 28.1384 17.6386 10.3487 -0.147311 -0.00560101 -0.026073 
92 1 1 27.3817 19.0221 10.922 -0.176494 0.0967231 0.116613 
93 1 1 27.3656 18.0756 10.7908 -0.0075457 -0.117109 0.0578789 
94 1 1 26.5331 20.3857 10.9581 -0.192133 0.0512113 0.0164805 
95 1 1 26.6209 19.4177 11.08 -0.0647221 -0.198143 0.0714826 
96 1 1 28.5637 16.9547 9.75602 0.202245 -0.0143231 0.0583293 
97 1 1 28.9672 16.4282 9.00171 0.0177893 0.00891783 -0.303427 
98 1 1 29.1793 15.8877 8.03163 -0.0262342 0.171041 -0.00578865 
99 1 1 29.6878 20.9859 3.25638 -0.127515 -0.152192 -0.0778377 
100 1 1 29.2859 21.9147 3.4953 -0.0133194 0.0182204 0.0168325 
101 1 1 28.8234 22.6984 3.90441 -0.0370759 0.12082 0.176533 
102 1 1 28.2555 23.3314 4.37945 -0.139223 0.113181 -0.0271328 
103 1 1 27.8748 23.8537 5.82141 0.0293146 0.0599811 -0.17268 
104 1 1 27.7658 23.7914 5.09751 0.129096 0.0435296 -0.105924 
105 1 1 27.4466 23.9829 6.68919 -0.122624 -0.0969595 0.0796809 
106 1 1 27.2995 23.7598 7.79602 -0.0467953 0.00281995 -0.0204487 
107 1 1 26.9843 23.4681 8.58722 0.079453 0.128941 0.114749 
108 1 1 26.7402 23.145 9.14447 -0.143547 -0.0237141 -0.0125655 
109 1 1 25.6825 20.8111 10.9253 0.0233211 0.122448 0.105146 
110 1 1 26.3009 22.1535 10.1684 -0.0686872 -0.00641481 -0.0827863 
111 1 1 26.1634 22.8858 9.53144 0.0641555 -0.123419 0.030944 
112 1 1 25.5348 21.6838 10.5368 0.0221703 0.035116 0.081365 
113 1 1 29.4676 19.4588 2.54386 -0.11122 -0.159601 -0.104423 
114 1 1 29.2707 20.434 2.55171 0.0856214 -0.00929078 -0.0721899 
115 1 1 29.6799 18.4599 2.84292 -0.0385752 0.0699142 0.0504424 
116 1 1 29.0103 18.7114 2.17842 0.0193415 -0.147319 0.0383829 
117 1 1 30.0819 17.175 4.12377 -0.109459 -0.0677799 -0.164997 
118 1 1 29.8711 16.3916 4.76869 -0.0822755 -0.0297229 -0.0355741 
119 1 1 29.5944 17.3375 3.22709 -0.216465 0.0255964 0.0172785 
120 1 1 29.527 15.7573 5.49175 -0.251054 -0.0722633 -0.092469 
121 1 1 29.2246 15.5396 7.07203 -0.107112 0.130148 0.0520685 
122 1 1 29.1465 15.3572 6.03676 0.057849 0.0227517 0.0298581 
123 1 1 27.6779 16.7379 10.1156 -0.141926 0.0144986 0.0779452 
124 1 1 27.3303 17.2913 10.5325 -0.215947 -0.0045666 -0.042189 
125 1 1 26.6845 18.4415 11.0131 0.0667586 -0.0860252 -0.16785 
126 1 1 26.7201 17.4963 10.7558 -0.0935543 0.0178595 -0.100794 
127 1 1 25.7826 19.903 11.1379 0.0905043 0.0539147 0.054104 
128 1 1 25.8038 18.9827 11.1872 -0.00528106 0.0022777 0.14942 
129 1 1 24.9843 20.2998 11.1523 -0.0219288 -0.0210935 -0.140979 
130 1 1 28.5997 15.2301 7.59927 -0.0716897 -0.0219058 0.267156 
131 1 1 28.1129 16.217 9.5019 -0.133897 0.0597605 -0.0723906 
132 1 1 28.3331 15.5072 8.49938 0.0852588 0.084776 -0.0878037 
133 1 1 28.9599 21.3381 2.70063 0.0695667 0.0451689 0.0799372 
134 1 1 28.5852 22.2155 3.06817 -0.0386522 0.118372 -0.190669 
135 1 1 27.4344 23.7006 4.41017 0.0896184 -0.0356068 0.0743766 
136 1 1 28.1238 22.8831 3.45888 0.0467885 -0.0648214 0.104129 
137 1 1 27.5156 23.3543 3.74089 -0.0219746 -0.0430051 -0.0317535 
138 1 1 27.14 24.0801 5.69629 -0.0930571 0.0693647 -0.0985391 
139 1 1 26.9795 23.9603 4.83519 0.0512488 -0.00238228 -0.0571571 
140 1 1 26.4859 24.2045 6.33264 -0.0777486 0.0543588 0.00667027 
141 1 1 26.5544 24.0512 7.3344 0.0973817 0.050212 0.154074 
142 1 1 26.5746 23.7984 8.07566 -0.0358005 0.00949152 -0.0414379 
143 1 1 26.0198 23.4782 8.76313 0.0306314 -0.065034 0.0043753 
144 1 1 24.8337 21.2044 10.8513 -0.0274647 0.00412649 -0.105899 
145 1 1 25.5238 22.483 9.96104 -0.0950753 -0.0252607 -0.0094962 
146 1 1 25.4951 22.999 9.43627 0.13055 0.0417258 -0.125245 
147 1 1 24.704 22.0316 10.3803 -0.188304 -0.0317272 -0.0527309 
148 1 1 28.8405 19.662 2.04291 0.0450649 -0.00680717 -0.0342221 
149 1 1 28.5231 20.6592 2.05985 0.0348069 0.117786 -0.096034 
150 1 1 29.0149 17.6401 2.47972 0.05216 0.0345399 -0.0506747 
151 1 1 28.3257 19.057 1.7115 0.08662 -0.0262561 -0.132055 
152 1 1 28.3182 18.0112 1.87667 -0.104233 0.11053 0.148631 
153 1 1 29.4619 16.4861 3.80452 -0.0441368 -0.00606908 -0.0917228 
154 1 1 29.1949 15.7613 4.49404 0.00713628 -0.0389727 -0.0335716 
155 1 1 28.9775 16.7547 2.97683 -0.0342227 -0.0564037 0.0660905 
156 1 1 28.7781 15.1783 5.23878 0.0304404 -0.138874 -0.0291711 
157 1 1 28.5779 14.9901 6.67516 0.0448081 -0.0112156 0.136706 
158 1 1 28.5276 14.9323 5.87675 -0.0755942 0.0313041 -0.0195929 
159 1 1 27.3466 16.1553 9.82483 0.138802 -0.126311 -0.0221889 
160 1 1 26.727 16.6184 10.3229 0.0963835 0.19855 0.201274 
161 1 1 25.9856 17.1294 10.7223 -0.231983 0.15428 0.194005 
162 1 1 25.8081 17.9493 11.0383 0.0452661 0.0995437 -0.0234874 
163 1 1 25.0083 19.4269 11.2844 -0.0253922 -0.0861124 -0.0313337 
164 1 1 25.102 18.6751 11.263 0.102585 -0.0096715 -0.160914 
165 1 1 24.1419 20.636 11.1477 0.190379 0.132309 0.12525 
166 1 1 24.4059 19.8901 11.3042 0.0689094 -0.098252 -0.188011 
167 1 1 27.944 14.9628 7.84499 0.0573035 -0.0908699 -0.0512067 
168 1 1 28.0095 14.7643 7.10367 0.078193 -0.0523802 -0.0206619 
169 1 1 27.4218 15.5963 9.24319 -0.0785106 -0.0115711 0.123308 
170 1 1 27.3913 15.0451 8.47312 0.0979308 -0.0738217 0.295953 
171 1 1 28.1173 21.6086 2.27736 0.00785481 0.00403151 0.112294 
172 1 1 27.6988 22.3656 2.62435 -0.188986 0.0330708 -0.0325782 
173 1 1 26.8203 23.7224 4.08768 0.272168 0.00753508 -0.0332063 
174 1 1 27.1789 22.9262 2.97093 -0.0627706 -0.0501451 -0.0126135 
175 1 1 26.7917 23.3877 3.46056 -0.0718181 0.127675 0.00180079 
176 1 1 26.1747 23.9497 4.47706 -0.0914002 0.133002 0.012203 
177 1 1 26.3083 24.1675 5.38228 -0.0388904 -0.186968 -0.0126141 
178 1 1 25.6038 24.2165 5.98683 -0.0167249 0.0728361 -0.0103223 
179 1 1 25.7344 24.1577 6.95624 -0.057671 -0.180898 0.012311 
180 1 1 25.8742 23.9074 7.89389 -0.00751165 -0.059198 0.0979201 
181 1 1 25.1844 23.7242 8.30029 0.137099 -0.0034967 -0.033846 
182 1 1 25.0309 23.4046 8.89309 -0.254019 -0.0443147 -0.0295679 
183 1 1 23.9224 21.5464 10.7588 -0.062886 0.0195604 0.119926 
184 1 1 23.3998 20.8668 11.1394 0.117733 0.0679144 0.06998 
185 1 1 24.6333 22.8187 9.68204 0.0625918 -0.0676503 -0.0448245 
186 1 1 23.9744 22.2676 10.2505 -0.0195334 0.153713 -0.174277 
187 1 1 28.0316 19.9699 1.62327 0.0455917 -0.0689953 0.0187261 
188 1 1 27.6456 20.9217 1.72083 -0.0223935 -0.0329665 -0.216595 
189 1 1 28.3894 17.0569 2.31911 -0.027948 -0.000454946 -0.144686 
190 1 1 27.7171 17.225 1.88719 0.21587 -0.107099 -0.113135 
191 1 1 27.6393 19.3369 1.40912 0.0493725 -0.000520116 -0.091401 
192 1 1 27.6713 18.629 1.45939 0.0136399 0.0275253 0.0773381 
193 1 1 27.4837 17.8595 1.55896 -0.0355577 -0.0195658 -0.102733 
194 1 1 28.7079 15.9025 3.57374 -0.0977693 -0.172642 0.0383804 
195 1 1 28.3733 15.2489 4.27029 -0.00826278 0.0720461 -0.0858197 
196 1 1 28.1774 16.1553 2.85039 0.0144955 -0.0529759 -0.147498 
197 1 1 27.924 14.7222 5.16609 -0.0369798 0.106366 -0.174097 
198 1 1 27.8697 14.5998 6.18206 -0.103971 0.147942 0.0893195 
199 1 1 26.7074 15.8404 9.72578 -0.225376 0.0111255 0.103301 
200 1 1 26.0817 15.9758 9.97068 0.134318 -0.0613419 -0.0325251 
201 1 1 25.7364 16.5455 10.4518 -0.0316432 -0.043149 0.00779972 
202 1 1 25.2173 17.1453 10.8553 -0.0149824 -0.0986638 0.0089174 
203 1 1 24.6594 17.9227 11.203 0.221419 -0.00713896 -0.076199 
204 1 1 24.1408 18.908 11.4062 -0.0291796 0.064326 -0.00852537 
205 1 1 23.445 19.8943 11.4169 0.16896 0.0872318 0.0879151 
206 1 1 27.2863 14.6437 7.63118 0.0069181 0.0713974 -0.119385 
207 1 1 27.174 14.4122 6.73146 0.11341 -0.0512368 -0.0149251 
208 1 1 26.6596 15.1907 8.99292 -0.0601844 0.0111841 -0.0872113 
209 1 1 26.5848 14.6984 8.14944 -0.0930011 0.0124534 0.145127 
210 1 1 27.1951 21.787 1.99925 0.0744467 0.0123916 0.00337457 
211 1 1 26.7181 22.3998 2.32478 0.00291984 0.137977 -0.0702528 
212 1 1 26.1013 23.5771 3.65222 -0.0245014 0.0162159 -0.190472 
213 1 1 26.1375 22.9981 2.83642 0.0679644 -0.0050409 0.125604 
214 1 1 25.3895 23.7648 4.10104 -0.156473 0.00293895 0.10945 
215 1 1 25.4868 24.0837 5.02165 -0.0233824 -0.0666793 -0.0973095 
216 1 1 22.6857 20.6154 11.3085 0.169464 0.0498749 -0.0792365 
217 1 1 22.8857 21.4593 10.9001 0.0357389 -0.0589552 0.164184 
218 1 1 24.7446 24.1078 5.54826 -0.0955082 -0.0584642 -0.0646678 
219 1 1 24.8064 24.155 6.46674 0.149815 -0.0867683 -0.150587 
220 1 1 24.9002 24.0035 7.4957 -0.0740244 -0.149911 0.025801 
221 1 1 24.4074 23.6999 8.32876 -0.315928 0.234733 0.138648 
222 1 1 24.041 23.3331 9.0215 0.0510042 -0.0630941 0.028719 
223 1 1 23.2414 22.1498 10.3985 -0.0325455 -0.0177537 0.167181 
224 1 1 23.54 22.7937 9.76304 -0.166199 -0.127045 0.0697601 
225 1 1 26.6728 21.1578 1.56141 -0.140542 0.214951 0.0609117 
226 1 1 27.0298 20.1071 1.31438 0.175681 -0.0959404 0.112411 
227 1 1 27.5398 16.4111 2.30256 0.154884 0.0152166 0.0691843 
228 1 1 27.065 16.8115 1.88752 -0.0943151 0.181549 0.106315 
229 1 1 26.9394 17.4254 1.56407 0.0174519 -0.0115747 -0.000778291 
230 1 1 26.9103 19.0573 1.21607 0.000630875 0.0974462 -0.0154398 
231 1 1 26.9284 18.2025 1.32641 0.0216457 0.159965 0.00978243 
232 1 1 27.8494 15.448 3.441 0.0767516 -0.0088091 0.197136 
233 1 1 27.4612 14.9075 4.09479 -0.0691202 -0.0786026 -0.106097 
234 1 1 27.2847 15.6825 2.85315 -0.0138137 0.173089 -0.0285989 
235 1 1 26.9128 14.5224 4.72343 -0.0568672 -0.168931 0.0150553 
236 1 1 27.114 14.3764 5.73527 0.0422839 0.0951965 -0.0759917 
237 1 1 25.9779 15.4453 9.46814 -0.0834215 0.0600788 0.110875 
238 1 1 25.1906 15.7757 9.97152 -0.00319415 0.080903 -0.0545394 
239 1 1 24.748 16.4709 10.5812 0.0339119 0.158594 0.110701 
240 1 1 24.2157 17.2013 11.0408 0.0333272 -0.124884 -0.00815218 
241 1 1 23.6629 17.9909 11.3649 -0.0402913 0.0824956 -0.0600167 
242 1 1 23.072 18.8562 11.5463 -0.0630605 0.0401443 0.0509714 
243 1 1 22.4424 19.7069 11.5672 -0.0334985 -0.0339107 0.021339 
244 1 1 26.4883 14.3804 7.22703 0.0452014 0.13903 0.0130903 
245 1 1 26.3713 14.2487 6.26321 -0.0374715 0.0261229 0.08997 
246 1 1 25.7976 14.8643 8.69289 -0.119451 -0.104288 -0.0451617 
247 1 1 25.7442 14.4633 7.81457 0.308453 0.0147464 -0.0203827 
248 1 1 26.2258 21.8665 1.88096 -0.131516 0.0426633 -0.130243 
249 1 1 25.89 22.3602 2.22426 -0.0609639 -0.0539739 0.164773 
250 1 1 25.3154 23.2727 3.25607 0.0686758 0.132906 -1.22778e-05 
251 1 1 25.2671 22.6249 2.52173 -0.142646 -0.0656479 0.158662 
252 1 1 24.5213 23.4785 3.77401 0.160473 -0.0280368 -0.0411231 
253 1 1 24.6364 23.8839 4.64518 0.0960401 0.113861 0.149615 
254 1 1 21.7406 20.4947 11.4486 0.00263607 0.0429588 0.0827202 
255 1 1 22.0138 21.3129 11.0598 -0.0665325 -0.101459 0.0636765 
256 1 1 22.2871 22.086 10.5188 -0.0308262 0.209766 0.149042 
257 1 1 23.9373 23.9637 5.19683 0.0544421 0.136364 0.0439285 
258 1 1 23.9845 24.0926 6.06888 0.238978 0.0241926 0.0170491 
259 1 1 24.1231 24.0867 6.81359 -0.0103258 -0.0186958 0.0538705 
260 1 1 23.7465 23.9333 7.58803 -0.10054 0.165165 0.0464167 
261 1 1 23.3867 23.6813 8.32839 0.0223661 -0.00282045 -0.0103781 
262 1 1 23.0518 23.2613 9.15053 0.00696413 -0.00361331 0.173717 
263 1 1 22.6362 22.7405 9.86704 -0.0635328 0.135903 0.138211 
264 1 1 25.9094 21.2845 1.56552 0.0131432 0.0932912 -0.0582282 
265 1 1 26.0247 20.5524 1.30248 0.0379885 -0.0154742 0.0329329 
266 1 1 26.1272 19.5637 1.1389 0.122764 0.0476293 0.0383676 
267 1 1 26.5656 16.0525 2.31187 0.0121687 -0.0325593 -0.138804 
268 1 1 26.3096 16.8596 1.73751 0.149913 0.0952012 -0.0863871 
269 1 1 26.2298 17.6792 1.38144 -0.138577 -0.0407717 0.0948928 
270 1 1 26.1616 18.5951 1.17069 -0.219216 -0.147135 -0.0375385 
271 1 1 26.9212 15.1389 3.41215 0.0436394 -0.0777286 0.0173595 
272 1 1 26.709 14.7613 4.00775 -0.0792885 0.202255 0.00586194 
273 1 1 26.4936 15.4115 2.94207 -0.0471018 -0.00199207 0.0111446 
274 1 1 26.0996 14.5572 4.35635 -0.0280728 0.0696597 -0.103169 
275 1 1 26.2395 14.3085 5.29334 0.13642 0.137933 -0.16669 
276 1 1 25.0631 15.0707 9.1986 0.125041 0.0438772 -0.0287267 
277 1 1 24.4036 15.2416 9.57254 -0.0340576 -0.0239879 -0.175287 
278 1 1 24.1116 15.7544 10.1652 -0.0558972 -0.0117967 0.0913737 
279 1 1 23.7597 16.3978 10.7104 0.0543615 0.0301211 -0.0316076 
280 1 1 23.2598 17.1326 11.1672 0.0147355 -0.199977 0.0882314 
281 1 1 22.7385 17.9229 11.4863 -0.133746 -0.0675907 -0.171691 
282 1 1 22.1388 18.7784 11.6682 -0.155707 -0.159942 0.22523 
283 1 1 21.4526 19.619 11.6971 -0.0615377 0.216346 0.107935 
284 1 1 25.6462 14.2404 6.91003 -0.0233492 0.0137656 -0.0713273 
285 1 1 25.4784 14.188 6.0048 -0.0270328 -0.128058 0.0617502 
286 1 1 24.9982 14.5879 8.37132 -0.0213767 0.0799178 -0.0571407 
287 1 1 24.9456 14.274 7.4597 -0.141772 0.132271 0.0822567 
288 1 1 25.2466 21.8458 1.92642 -0.0568897 0.0320481 -0.107003 
289 1 1 24.5786 22.9149 2.96665 0.0151538 0.151542 -0.0682051 
290 1 1 24.6265 22.3974 2.44359 0.0405878 -0.179403 -0.0559264 
291 1 1 20.7609 20.4136 11.5797 0.0332614 0.0932199 -0.136174 
292 1 1 23.7208 23.1594 3.4702 0.0602543 -0.00880059 0.0688745 
293 1 1 23.7992 23.6434 4.29727 -0.0277792 -0.0308543 -0.100441 
294 1 1 21.0516 21.2244 11.1951 -0.0496999 -0.0500942 -0.0532948 
295 1 1 21.356 21.9952 10.6575 0.123579 0.038357 -0.00379037 
296 1 1 21.6959 22.6386 10.0273 -0.0184895 -0.197543 0.209794 
297 1 1 23.0952 23.7921 4.90797 -0.0784281 -0.118863 -0.0843603 
298 1 1 23.3638 23.9933 5.64043 -0.14313 -0.0802515 -0.0787624 
299 1 1 23.1426 24.0349 6.63527 0.224484 -0.104976 0.0794647 
300 1 1 22.7353 23.8937 7.57501 0.111981 0.116263 0.256662 
301 1 1 22.4304 23.6133 8.45152 -0.00304537 0.175538 -0.0245529 
302 1 1 22.0632 23.1899 9.27943 -0.0428499 0.112514 -0.195652 
303 1 1 25.3523 19.0474 1.17046 0.033181 0.0415788 0.00158135 
304 1 1 25.2531 20.9687 1.4931 -0.0593144 0.0616711 -0.0247257 
305 1 1 25.2897 20.0231 1.23768 -0.015012 0.0146159 0.0535094 
306 1 1 25.8111 15.5783 2.71985 0.216174 -0.0436385 -0.138514 
307 1 1 25.674 16.3105 2.08345 -0.128553 -0.0310433 0.129889 
308 1 1 25.548 17.1539 1.60216 0.153415 -0.0147288 -0.11501 
309 1 1 25.4394 18.0784 1.29304 -0.170672 0.0736702 -0.155924 
310 1 1 25.955 14.9867 3.48727 -0.0529825 0.144754 -0.0817701 
311 1 1 25.3099 14.6321 4.14377 0.122782 -0.0197558 -0.0603404 
312 1 1 25.2821 14.3307 4.98881 -0.010447 0.0734625 -0.00533886 
313 1 1 24.1789 14.7335 8.88596 0.0570312 0.0945589 0.0406489 
314 1 1 23.6541 15.1338 9.60475 0.111405 -0.0977021 0.0259249 
315 1 1 23.2105 15.7024 10.2951 -0.11867 0.0597242 0.0733321 
316 1 1 22.771 16.3243 10.8407 -0.0212835 -0.0918602 0.100907 
317 1 1 22.2719 17.0601 11.2971 -0.0325917 0.145228 0.0252425 
318 1 1 21.7488 17.8496 11.6153 0.0525643 0.0102391 -0.128948 
319 1 1 21.118 18.7282 11.8007 -0.144183 -0.0365601 -0.131944 
320 1 1 20.4568 19.5489 11.8262 0.016858 0.260057 -0.123848 
321 1 1 24.7856 14.1384 6.60239 0.022112 0.0166509 0.0206178 
322 1 1 24.7258 14.1517 5.84754 0.125595 -0.168553 -0.218664 
323 1 1 24.1895 14.329 7.95722 -0.0122599 -0.164813 0.112327 
324 1 1 24.2878 14.1542 7.17687 0.0861408 0.156094 0.111763 
325 1 1 24.5074 21.2278 1.72064 0.0278536 -0.0776589 0.0200313 
326 1 1 24.2574 21.7749 2.05723 0.0915701 0.090632 0.0862266 
327 1 1 23.7443 22.4648 2.67545 0.0866003 0.220515 -0.0558251 
328 1 1 23.0202 22.8886 3.27349 0.107958 0.0759093 -0.0289959 
329 1 1 19.7876 20.3257 11.7117 0.161726 0.0548892 0.0927218 
330 1 1 20.0661 21.1497 11.3256 -0.0825495 -0.118417 0.122537 
331 1 1 22.9077 23.3714 4.00434 0.0948047 0.00424298 -0.0351821 
332 1 1 20.3674 21.9219 10.787 0.0171641 -0.261599 -0.0598155 
333 1 1 20.7061 22.5657 10.1571 0.00780025 0.117177 0.0441386 
334 1 1 21.0739 23.1166 9.40899 -0.00801789 0.077775 0.160998 
335 1 1 22.3573 23.6373 4.71757 0.221713 0.048046 -0.0324162 
336 1 1 22.4015 23.9115 5.68949 -0.119477 -0.132152 0.0541939 
337 1 1 22.0712 23.9572 6.74781 -0.0331399 -0.0705185 0.131047 
338 1 1 21.811 23.8249 7.69713 -0.164293 -0.0179116 0.105858 
339 1 1 21.4412 23.5406 8.5813 -0.0117807 -0.0536832 0.0818388 
340 1 1 25.2121 15.3719 2.98234 -0.0604207 0.0782208 0.0466925 
341 1 1 24.606 18.4437 1.31884 -0.13437 0.0698187 0.0672397 
342 1 1 24.482 19.3574 1.28265 -0.0148929 0.13845 -0.162911 
343 1 1 24.3742 20.3841 1.4454 -0.0503708 0.0759899 -0.0829958 
344 1 1 25.0323 15.877 2.47713 0.112702 -0.0516543 0.0313324 
345 1 1 24.7818 16.6591 1.93086 -0.00602387 0.0670688 -0.166783 
346 1 1 24.6958 17.5355 1.53368 -0.0259127 -0.077136 -0.0346998 
347 1 1 23.8968 17.9352 1.50157 -0.174119 -0.157911 0.141741 
348 1 1 24.9656 14.9143 3.61794 0.00415605 -0.0588944 -0.0555014 
349 1 1 24.5546 14.5441 4.31591 -0.0595479 0.102969 -0.156336 
350 1 1 24.1474 14.2332 5.19596 0.154774 0.14272 0.00551352 
351 1 1 23.5098 14.3798 8.3306 0.0956734 -0.0607398 0.101066 
352 1 1 23.1388 14.6505 9.00933 0.0840021 0.0618863 -0.0122749 
353 1 1 22.7008 15.0684 9.73557 0.0371511 -0.0538568 0.0618507 
354 1 1 22.2614 15.5959 10.3869 -0.00354181 -0.0391102 -0.109333 
355 1 1 21.7828 16.2525 10.9697 0.0845658 0.12717 -0.0344281 
356 1 1 21.2824 16.9871 11.425 0.0756667 0.0051143 -0.0230262 
357 1 1 20.76 17.7773 11.7441 -0.0495984 0.12824 0.0420761 
358 1 1 20.1304 18.6526 11.9288 0.0647793 -0.12602 0.0594913 
359 1 1 19.4461 19.4685 11.9584 0.151791 -0.0610337 -0.149301 
360 1 1 23.8262 14.0651 6.26904 0.0124447 -0.00945677 -0.231022 
361 1 1 23.3437 14.0973 7.37484 -0.0403503 0.0146195 -0.0754813 
362 1 1 23.7425 21.0983 1.78781 0.000514234 0.0706896 -0.20682 
363 1 1 23.2671 21.702 2.18578 -0.0622082 0.0556906 0.0322753 
364 1 1 22.6615 22.3268 2.76559 0.0460491 -0.0486465 0.00326148 
365 1 1 22.2792 22.8859 3.43407 0.0957255 -0.00749006 0.15094 
366 1 1 18.7763 20.2783 11.8337 0.0631806 0.0500139 -0.0438547 
367 1 1 19.0779 21.0646 11.4601 0.148057 -0.0181201 -0.00609119 
368 1 1 19.3765 21.8454 10.9196 0.0145062 0.0547985 -0.0279182 
369 1 1 21.8696 23.3029 4.14975 0.0512253 -0.000401242 -0.0379101 
370 1 1 19.7165 22.4932 10.2858 0.216632 -0.173887 -0.157321 
371 1 1 20.084 23.0434 9.53795 0.0810998 -0.022374 -0.100233 
372 1 1 20.4513 23.4678 8.71064 -0.0776309 0.155378 0.0683153 
373 1 1 21.6381 23.6579 5.0107 -0.101225 -0.0134608 -0.103048 
374 1 1 21.4021 23.8563 5.93405 0.0511315 -0.0795233 0.0407564 
375 1 1 21.1383 23.8893 6.87897 -0.0377657 -0.0643062 -0.0122621 
376 1 1 20.8216 23.7526 7.82669 0.00339614 0.224942 -0.0229825 
377 1 1 24.3 15.4227 2.96754 -0.0235555 0.131963 0.0375111 
378 1 1 23.7609 18.8004 1.38384 0.0811126 -0.0490655 0.0857269 
379 1 1 23.7475 19.5571 1.3943 -0.0140719 -0.0245269 0.00402159 
380 1 1 23.2333 20.2411 1.58096 0.0859891 0.0871183 0.0451534 
381 1 1 24.0777 16.198 2.28993 -0.157909 0.186972 0.159225 
382 1 1 23.9613 17.024 1.81575 0.0154583 0.0587863 -0.0228524 
383 1 1 23.1416 17.4837 1.71484 0.016271 0.0140803 0.202145 
384 1 1 23.2462 18.2558 1.51 0.00745799 0.0567878 -0.000414049 
385 1 1 23.9759 14.8419 3.74662 -0.0592139 0.0135586 0.0391715 
386 1 1 23.576 14.4161 4.57661 0.0404697 0.00844133 -0.0367358 
387 1 1 23.1768 14.1284 5.46573 -0.0969396 -0.140224 -0.0387328 
388 1 1 22.7505 14.2507 8.23046 -0.0876163 -0.0973708 -0.169113 
389 1 1 22.2471 14.5396 9.04368 -0.0780329 0.0628172 0.0958116 
390 1 1 21.7641 14.9832 9.8363 -0.00966448 -0.0125308 -0.0745842 
391 1 1 21.2721 15.5234 10.5157 -0.0606375 -0.00852099 -0.0795173 
392 1 1 20.7933 16.1795 11.0973 -0.00390566 0.122977 0.220936 
393 1 1 20.2933 16.9141 11.5535 0.153203 -0.0788387 0.134592 
394 1 1 19.7714 17.7039 11.8721 0.0599385 -0.0833291 0.0791039 
395 1 1 19.1287 18.5714 12.059 0.170831 0.0098302 0.0571862 
396 1 1 18.4675 19.3855 12.0877 -0.282061 -0.186328 -0.146074 
397 1 1 22.7626 13.9845 6.43545 -0.143945 0.0864647 -0.121842 
398 1 1 22.3171 14.0028 7.39392 -0.014852 -0.021412 -0.156749 
399 1 1 22.7464 20.8934 1.8626 0.110651 0.00178048 0.0014104 
400 1 1 22.2797 21.629 2.31527 0.137625 -0.0121527 0.05554 
401 1 1 21.7589 22.2458 2.86942 -0.0673441 -0.0446906 -0.0386722 
402 1 1 17.8136 20.1569 11.976 -0.0971786 -0.0910719 -0.00595623 
403 1 1 21.3266 22.8113 3.55003 -0.0095612 -0.0531788 -0.0353382 
404 1 1 18.0741 21.0064 11.5829 0.16469 0.0864608 -0.125603 
405 1 1 18.3823 21.7583 11.0606 -0.157875 0.0519627 0.120453 
406 1 1 18.7293 22.4196 10.4154 -0.138877 0.190038 -0.00343344 
407 1 1 20.9935 23.2842 4.34511 0.0051759 0.0976731 0.0534876 
408 1 1 19.0953 22.9714 9.66663 0.0399779 -0.035284 -0.114592 
409 1 1 19.4624 23.3949 8.8388 -0.0614874 -0.0333057 -0.0193415 
410 1 1 19.8332 23.6798 7.95542 -0.0260926 0.129744 -0.0665746 
411 1 1 20.6927 23.6055 5.1833 0.0389553 0.11137 -0.043543 
412 1 1 20.4119 23.786 6.07781 0.0307394 0.171491 -0.0937773 
413 1 1 20.1165 23.8137 6.98686 0.0188238 -0.0999561 0.124526 
414 1 1 23.4467 15.8626 2.59588 -0.104599 0.201566 -0.133412 
415 1 1 23.2288 15.2895 3.16692 -0.0131638 -0.161965 0.0799238 
416 1 1 22.8261 19.1874 1.4981 0.0693219 0.128745 0.0226676 
417 1 1 22.2485 20.0266 1.67676 0.0405078 0.0340863 0.0535715 
418 1 1 23.1618 16.5586 2.13048 0.0144682 -0.111414 0.0772745 
419 1 1 22.468 17.1503 1.90679 -0.0124385 0.0661798 0.0524755 
420 1 1 22.2992 18.1118 1.64617 -0.0863042 0.0443886 0.0939354 
421 1 1 22.9866 14.7678 3.87624 0.0379656 0.0756674 -0.0169813 
422 1 1 22.6202 14.3447 4.70258 -0.156863 -0.139758 0.115968 
423 1 1 22.2534 14.06 5.58657 0.12315 -0.0435196 -0.0180662 
424 1 1 21.7944 14.1633 8.30378 0.0629746 0.077098 -0.0769662 
425 1 1 21.2819 14.4588 9.15133 0.0432687 -0.040581 0.00158891 
426 1 1 20.7762 14.9098 9.96445 0.0688527 -0.0364801 -0.0334574 
427 1 1 20.2819 15.4503 10.6438 -0.0791943 -0.0140033 -0.0056088 
428 1 1 19.8043 16.1071 11.2257 -0.0880553 -0.00906527 -0.0236364 
429 1 1 17.5002 19.3053 12.2146 0.186789 0.0544793 -0.0188437 
430 1 1 19.3043 16.8407 11.6818 -0.170815 0.00145999 -0.0729042 
431 1 1 18.7826 17.6312 12.0001 -0.00164005 -0.157917 -0.126347 
432 1 1 18.1488 18.496 12.187 0.0217815 0.0950779 0.0783289 
433 1 1 21.8278 13.9155 6.54583 0.0822324 -0.0906007 0.120673 
434 1 1 21.3238 13.9274 7.5071 -0.0628935 0.169268 0.0142453 
435 1 1 21.7907 20.8224 1.98711 -0.0677405 0.0175331 -0.137569 
436 1 1 21.2905 21.557 2.44324 -0.0881799 -0.0360068 -0.0227316 
437 1 1 20.8126 22.2141 3.02496 0.0396653 -0.00848548 -0.0370696 
438 1 1 16.8141 20.0688 12.1106 0.0296353 0.0280735 -0.0162286 
439 1 1 17.0942 20.9166 11.7189 0.00667094 -0.0213984 0.0197539 
440 1 1 20.3925 22.7625 3.69482 -0.148985 0.0629461 0.11174 
441 1 1 17.3925 21.6946 11.1815 0.0868248 0.0601889 -0.14162 
442 1 1 17.7405 22.3467 10.544 0.154255 -0.100215 0.089749 
443 1 1 18.1076 22.8975 9.79562 -0.187877 -0.0689647 0.0185153 
444 1 1 20.0301 23.2246 4.4885 0.00724215 0.0870088 0.060877 
445 1 1 18.4739 23.3223 8.96757 0.111053 -0.0681728 0.00186003 
446 1 1 18.8437 23.6071 8.08434 -0.166659 -0.0481466 0.00511384 
447 1 1 19.1299 23.7426 7.11883 0.0322081 0.0195357 0.0510443 
448 1 1 19.7148 23.5367 5.31939 0.0462254 -0.173489 -0.0382973 
449 1 1 19.4171 23.7128 6.20412 0.0496878 0.0536814 0.0401288 
450 1 1 22.6902 15.8719 2.64037 0.0963054 0.0242844 -0.0931872 
451 1 1 22.3309 15.2106 3.2973 0.0633263 0.122118 -0.0363621 
452 1 1 21.761 19.0829 1.63597 0.212165 0.134876 0.311829 
453 1 1 21.3236 19.9597 1.79749 -0.0356874 0.0326628 0.0321592 
454 1 1 22.1223 16.4942 2.25815 0.065134 0.112107 -0.0478857 
455 1 1 21.7038 17.2913 1.92984 0.0123372 0.0621687 0.0154575 
456 1 1 21.2756 18.1508 1.75961 0.0958786 0.0649387 -0.119865 
457 1 1 21.9983 14.6955 4.00349 0.0803527 -0.104865 0.126383 
458 1 1 21.6327 14.2721 4.83182 0.0311268 0.0544498 0.0338173 
459 1 1 21.264 13.9869 5.71416 -0.0793204 0.0394146 0.00381424 
460 1 1 20.8133 14.0876 8.42084 -0.112048 -0.161462 0.0494256 
461 1 1 20.2967 14.3849 9.2766 0.0966585 0.0689147 0.0470188 
462 1 1 19.7828 14.832 10.0894 -0.0328987 0.00744873 -0.0782092 
463 1 1 19.2939 15.3768 10.7738 -0.0757884 0.0372804 0.164738 
464 1 1 18.8161 16.0326 11.3544 0.114578 0.0318534 0.00983687 
465 1 1 16.5 19.2359 12.3445 0.019546 0.00964413 -0.0392256 
466 1 1 17.1559 18.428 12.3162 0.146407 -0.104184 -0.241432 
467 1 1 18.3155 16.7676 11.8107 -0.110688 0.101802 0.0958275 
468 1 1 17.7935 17.5579 12.1298 -0.0526202 -0.101128 0.0126406 
469 1 1 20.8109 13.8402 6.70232 -0.0575245 -0.205367 -0.00708274 
470 1 1 20.329 13.8547 7.63907 0.113065 -0.0449414 0.24455 
471 1 1 20.8021 20.7494 2.11553 0.0235695 0.0313824 0.0603806 
472 1 1 20.3014 21.485 2.57147 -0.0518483 -0.140643 -0.0752749 
473 1 1 19.8245 22.1427 3.15311 0.189103 0.00517521 -0.110716 
474 1 1 15.8236 20.0095 12.2352 -0.0531128 -0.164141 0.00473532 