ITEM: TIMESTEP
700
ITEM: NUMBER OF ATOMS
94148
ITEM: BOX BOUNDS pp pp pp
0 62
0 62
0 62
ITEM: ATOMS id mol type x y z 
1 1 1 5.93233 26.6372 26.3978 
2 1 1 6.64536 26.2267 26.6991 
3 1 1 6.68842 26.9633 26.0144 
4 1 1 7.42805 26.5097 26.2671 
5 1 1 5.87802 27.2759 25.6736 
6 1 1 7.4303 27.2045 25.4573 
7 1 1 8.24213 26.703 25.6148 
8 1 1 5.78238 25.8995 26.948 
9 1 1 6.54512 25.3641 27.2503 
10 1 1 7.34384 25.7139 26.9128 
11 1 1 8.0983 25.9618 26.4327 
12 1 1 8.81215 25.9316 25.945 
13 1 1 5.06355 26.316 26.5054 
14 1 1 5.23611 26.9004 26.0068 
15 1 1 5.04506 27.3044 25.3676 
16 1 1 6.60978 27.5453 25.1904 
17 1 1 5.7217 27.7196 24.8241 
18 1 1 9.00542 26.3867 25.308 
19 1 1 8.81883 26.9417 24.7412 
20 1 1 8.09665 27.35 24.753 
21 1 1 7.31169 27.7145 24.5642 
22 1 1 4.41436 25.8791 26.5336 
23 1 1 5.08678 25.4263 27.0888 
24 1 1 5.7994 24.9394 27.4307 
25 1 1 6.40303 24.3959 27.6153 
26 1 1 7.26177 24.7442 27.3971 
27 1 1 8.07842 25.0282 27.0105 
28 1 1 9.53625 25.7715 25.3519 
29 1 1 8.80816 25.1486 26.525 
30 1 1 9.46067 25.1413 25.9177 
31 1 1 4.32794 26.6018 25.805 
32 1 1 4.37648 27.1881 24.9964 
33 1 1 4.90607 27.642 24.4849 
34 1 1 6.42731 27.9573 24.1986 
35 1 1 5.49502 27.9479 23.8988 
36 1 1 9.52278 26.3408 24.6974 
37 1 1 9.39369 26.8385 24.0113 
38 1 1 10.079 25.6665 24.6554 
39 1 1 8.69117 27.3777 23.9209 
40 1 1 7.98234 27.7544 23.7948 
41 1 1 7.12507 28.0392 23.5075 
42 1 1 3.753 25.7954 26.0953 
43 1 1 3.82649 25.0901 26.6073 
44 1 1 4.41167 24.8341 27.0832 
45 1 1 5.08458 24.6107 27.4086 
46 1 1 5.50761 23.9852 27.6507 
47 1 1 6.08602 23.3944 27.7627 
48 1 1 7.0535 23.7589 27.6564 
49 1 1 7.96478 24.0641 27.3591 
50 1 1 8.74331 24.2472 26.9262 
51 1 1 10.0359 25.055 25.2725 
52 1 1 9.40442 24.3592 26.3667 
53 1 1 9.91234 24.4815 25.7788 
54 1 1 3.48172 26.1905 25.4692 
55 1 1 2.96419 25.3472 25.5586 
56 1 1 3.72292 26.7734 24.9627 
57 1 1 4.0546 27.3043 24.2626 
58 1 1 3.0651 26.348 24.6194 
59 1 1 4.60145 27.7417 23.5904 
60 1 1 6.18613 28.1295 23.2205 
61 1 1 5.1906 28.0047 22.9744 
62 1 1 9.18884 27.1958 23.3261 
63 1 1 10.0035 26.2025 23.9466 
64 1 1 9.80773 26.6609 23.2097 
65 1 1 10.5209 24.8531 24.6275 
66 1 1 10.5036 25.4721 23.912 
67 1 1 8.59455 27.6042 23.0551 
68 1 1 7.79179 27.9614 22.7902 
69 1 1 6.86419 28.1514 22.5452 
70 1 1 3.25756 24.8782 26.1704 
71 1 1 3.65449 24.3115 26.7534 
72 1 1 4.48706 23.791 27.3727 
73 1 1 5.14776 23.071 27.6275 
74 1 1 5.85072 22.5352 27.7163 
75 1 1 6.80977 22.8232 27.7256 
76 1 1 7.75852 23.071 27.5101 
77 1 1 8.6035 23.3627 27.1174 
78 1 1 9.32734 23.4902 26.6199 
79 1 1 10.4013 24.1985 25.2294 
80 1 1 10.0158 23.571 25.9401 
81 1 1 10.8449 23.9899 24.5107 
82 1 1 2.59648 24.397 25.6027 
83 1 1 2.66818 25.6816 24.8091 
84 1 1 2.44317 24.9595 25.0633 
85 1 1 3.29785 26.8019 24.0642 
86 1 1 3.71616 27.3049 23.371 
87 1 1 2.66419 26.1568 23.953 
88 1 1 4.29552 27.6805 22.6614 
89 1 1 5.88066 28.1526 22.2595 
90 1 1 4.84736 27.8873 22.0053 
91 1 1 9.25966 27.1868 22.4328 
92 1 1 10.341 26.0131 23.1186 
93 1 1 9.98443 26.4805 22.3465 
94 1 1 10.8988 24.6648 23.8253 
95 1 1 10.7979 25.2722 23.0482 
96 1 1 8.43533 27.683 22.0978 
97 1 1 7.53449 27.988 21.8565 
98 1 1 6.48112 28.0982 21.5411 
99 1 1 3.00653 23.948 26.251 
100 1 1 3.55629 23.3091 26.8403 
101 1 1 4.21541 22.6797 27.2455 
102 1 1 4.93823 22.0529 27.4515 
103 1 1 6.54532 22.0683 27.6497 
104 1 1 5.86651 21.688 27.58 
105 1 1 7.44352 21.9952 27.4527 
106 1 1 8.41763 22.4148 27.1373 
107 1 1 9.1402 22.6739 26.7309 
108 1 1 9.73307 22.7811 26.261 
109 1 1 11.2335 23.7782 23.6845 
110 1 1 10.5921 23.2933 25.1815 
111 1 1 10.2409 22.5772 25.6986 
112 1 1 11.0912 23.0883 24.371 
113 1 1 2.11255 24.2683 24.8274 
114 1 1 2.38872 23.6092 25.5359 
115 1 1 2.12267 25.107 24.1186 
116 1 1 1.7968 24.1737 23.9448 
117 1 1 2.90007 26.6201 23.2187 
118 1 1 3.3925 27.1122 22.4582 
119 1 1 2.2743 25.7799 23.1505 
120 1 1 4.00109 27.451 21.7435 
121 1 1 5.50388 27.9705 21.3239 
122 1 1 4.53331 27.6018 21.1446 
123 1 1 8.97211 27.2256 21.4576 
124 1 1 9.58199 26.7722 21.6615 
125 1 1 10.5037 25.8001 22.2551 
126 1 1 10.07 26.198 21.5148 
127 1 1 11.2014 24.4178 22.9858 
128 1 1 11.0479 24.9207 22.2067 
129 1 1 11.5582 23.6052 22.8713 
130 1 1 6.09057 27.837 20.6712 
131 1 1 8.20334 27.6007 21.1901 
132 1 1 7.07786 27.7962 20.726 
133 1 1 2.82289 22.9991 26.1562 
134 1 1 3.43843 22.4132 26.6891 
135 1 1 5.26748 21.2361 27.3507 
136 1 1 4.05291 21.8305 27.0017 
137 1 1 4.55179 21.1467 27.0478 
138 1 1 6.69241 21.2889 27.4235 
139 1 1 5.94121 20.8444 27.289 
140 1 1 7.4948 20.9698 27.0935 
141 1 1 8.28782 21.5197 26.9522 
142 1 1 8.96061 21.9188 26.7163 
143 1 1 9.68622 21.8877 26.1418 
144 1 1 11.5269 22.9009 23.5762 
145 1 1 10.7675 22.4312 25.0147 
146 1 1 10.3945 21.8714 25.4405 
147 1 1 11.3202 22.2194 24.1921 
148 1 1 1.91659 23.4667 24.643 
149 1 1 2.24773 22.7278 25.3312 
150 1 1 1.84979 24.882 23.071 
151 1 1 1.66548 23.2689 23.8337 
152 1 1 1.60384 23.9213 22.967 
153 1 1 2.63658 26.365 22.346 
154 1 1 3.17372 26.813 21.5753 
155 1 1 2.11245 25.5289 22.3048 
156 1 1 3.82933 27.0989 20.8515 
157 1 1 5.19511 27.6142 20.5061 
158 1 1 4.45595 27.2669 20.4021 
159 1 1 8.74371 27.1032 20.7233 
160 1 1 9.44891 26.5056 20.763 
161 1 1 10.1575 25.816 20.7897 
162 1 1 10.6932 25.3626 21.3354 
163 1 1 11.4828 24.1155 22.1534 
164 1 1 11.2687 24.5426 21.5061 
165 1 1 11.8987 22.7953 22.7225 
166 1 1 11.8328 23.3861 22.1423 
167 1 1 6.51537 27.5374 20.0584 
168 1 1 5.72858 27.4183 19.9284 
169 1 1 8.04952 27.2806 20.2801 
170 1 1 7.25534 27.2615 19.7837 
171 1 1 2.74339 22.0429 25.889 
172 1 1 3.31592 21.4671 26.2984 
173 1 1 5.22822 20.531 27.0158 
174 1 1 3.87964 20.8713 26.4958 
175 1 1 4.5387 20.4238 26.6585 
176 1 1 5.89026 20.0527 26.8367 
177 1 1 6.70717 20.4571 27.0485 
178 1 1 7.50311 20.1096 26.6606 
179 1 1 8.29274 20.6302 26.6007 
180 1 1 8.98584 21.1885 26.4472 
181 1 1 9.54723 20.8936 25.9476 
182 1 1 10.1409 21.116 25.5282 
183 1 1 11.8249 21.9718 23.3356 
184 1 1 12.1961 22.0861 22.4661 
185 1 1 10.8867 21.4484 24.8045 
186 1 1 11.4846 21.45 23.9821 
187 1 1 1.88177 22.5316 24.4935 
188 1 1 2.27335 21.7683 25.0241 
189 1 1 1.77246 24.6665 22.2152 
190 1 1 1.62547 23.8921 21.9225 
191 1 1 1.68273 22.4353 23.7215 
192 1 1 1.55288 22.8913 23.0997 
193 1 1 1.53033 23.2649 22.3929 
194 1 1 2.54075 26.0255 21.4274 
195 1 1 3.12139 26.3724 20.6563 
196 1 1 2.11779 25.2132 21.337 
197 1 1 3.95177 26.6641 19.9369 
198 1 1 4.89552 27.0749 19.737 
199 1 1 8.72571 26.7207 20.0451 
200 1 1 9.22362 26.1766 19.85 
201 1 1 9.86534 25.7642 20.0835 
202 1 1 10.5251 25.231 20.3302 
203 1 1 11.181 24.547 20.6383 
204 1 1 11.7422 23.743 21.2132 
205 1 1 12.2371 22.6876 21.6649 
206 1 1 6.3903 27.1006 19.3884 
207 1 1 5.54225 26.8272 19.1569 
208 1 1 7.96352 26.7827 19.4851 
209 1 1 7.09633 26.7138 19.0341 
210 1 1 2.83021 21.1199 25.5129 
211 1 1 3.40936 20.5248 25.783 
212 1 1 5.07234 19.854 26.4843 
213 1 1 4.16496 19.9269 25.9759 
214 1 1 5.77408 19.3869 26.2392 
215 1 1 6.66426 19.6982 26.5399 
216 1 1 12.5485 21.6962 21.8275 
217 1 1 12.2711 21.2745 22.6638 
218 1 1 7.36325 19.2563 26.1617 
219 1 1 8.17678 19.661 26.1595 
220 1 1 9.02196 20.1849 26.006 
221 1 1 9.86682 20.2787 25.4626 
222 1 1 10.5601 20.4714 24.9221 
223 1 1 11.8388 20.974 23.4349 
224 1 1 11.2779 20.6401 24.1694 
225 1 1 2.49168 20.8417 24.6473 
226 1 1 1.94805 21.5625 23.9855 
227 1 1 1.87451 24.3926 21.184 
228 1 1 1.74894 23.6055 21.1726 
229 1 1 1.61657 23.0148 21.6659 
230 1 1 1.67561 21.9751 23.0292 
231 1 1 1.5811 22.4792 22.3162 
232 1 1 2.57877 25.5508 20.5565 
233 1 1 3.18259 25.7967 19.8405 
234 1 1 2.2698 24.7245 20.424 
235 1 1 3.82484 25.8167 19.1689 
236 1 1 4.62596 26.4344 19.1409 
237 1 1 8.64478 26.2338 19.3087 
238 1 1 9.39976 25.6042 19.1429 
239 1 1 10.252 25.1004 19.4827 
240 1 1 10.9966 24.4979 19.7916 
241 1 1 11.654 23.7979 20.1757 
242 1 1 12.2078 22.9954 20.5877 
243 1 1 12.6457 22.0925 20.933 
244 1 1 6.20575 26.4847 18.708 
245 1 1 5.30154 26.1277 18.5755 
246 1 1 7.84749 26.1961 18.7235 
247 1 1 6.98603 26.0862 18.3311 
248 1 1 3.05856 20.3127 25.0466 
249 1 1 3.6075 19.8319 25.2658 
250 1 1 4.90404 19.2908 25.7916 
251 1 1 4.16404 19.2897 25.1915 
252 1 1 5.65802 18.741 25.5274 
253 1 1 6.51694 18.9472 25.9405 
254 1 1 12.9678 21.1037 21.1994 
255 1 1 12.6791 20.7355 22.0445 
256 1 1 12.2286 20.3406 22.8406 
257 1 1 7.23321 18.5358 25.6111 
258 1 1 8.04516 18.84 25.7014 
259 1 1 8.72616 19.2581 25.6955 
260 1 1 9.4981 19.3446 25.3071 
261 1 1 10.2199 19.5195 24.8562 
262 1 1 10.9609 19.7907 24.2854 
263 1 1 11.6287 20.0203 23.5946 
264 1 1 2.82801 20.144 24.3268 
265 1 1 2.36005 20.5579 23.7752 
266 1 1 1.97621 21.0854 23.0159 
267 1 1 2.10229 23.7581 20.3208 
268 1 1 1.85145 22.8682 20.8434 
269 1 1 1.74486 22.2217 21.4861 
270 1 1 1.78312 21.6184 22.2173 
271 1 1 2.75713 25.0105 19.7891 
272 1 1 3.28939 25.2067 19.2617 
273 1 1 2.55167 24.2734 19.7179 
274 1 1 3.77986 25.0214 18.6894 
275 1 1 4.49003 25.6242 18.5504 
276 1 1 8.56272 25.6716 18.4826 
277 1 1 9.17568 25.1632 18.2773 
278 1 1 9.91569 24.8243 18.5379 
279 1 1 10.6512 24.4032 18.8825 
280 1 1 11.3904 23.8296 19.2332 
281 1 1 12.0378 23.1738 19.599 
282 1 1 12.6049 22.379 19.9808 
283 1 1 13.084 21.4498 20.3033 
284 1 1 6.11507 25.8258 18.0939 
285 1 1 5.32144 25.4008 17.9578 
286 1 1 7.75784 25.6169 18.0118 
287 1 1 6.85204 25.47 17.6973 
288 1 1 3.46472 19.4941 24.4435 
289 1 1 4.82213 18.7499 25.062 
290 1 1 4.20998 18.8563 24.5558 
291 1 1 13.4125 20.466 20.5928 
292 1 1 5.57593 18.128 24.8203 
293 1 1 6.38449 18.2487 25.2782 
294 1 1 13.1154 20.1066 21.4397 
295 1 1 12.6447 19.7317 22.2517 
296 1 1 12.0493 19.4217 22.9835 
297 1 1 7.15661 17.8496 24.9762 
298 1 1 7.85679 18.1995 25.2378 
299 1 1 8.81787 18.4318 25.1315 
300 1 1 9.7672 18.5866 24.7068 
301 1 1 10.5805 18.8499 24.2474 
302 1 1 11.3444 19.1235 23.6522 
303 1 1 2.14477 20.7708 22.1332 
304 1 1 2.85234 19.8258 23.618 
305 1 1 2.42893 20.2405 22.8899 
306 1 1 2.58014 23.5142 19.5242 
307 1 1 2.23553 22.8059 20.0427 
308 1 1 2.04706 22.0576 20.6644 
309 1 1 2.01683 21.3751 21.3707 
310 1 1 3.11428 24.2957 19.0416 
311 1 1 3.81541 24.2979 18.319 
312 1 1 4.51962 24.7508 17.9794 
313 1 1 8.52975 25.0372 17.6922 
314 1 1 9.41631 24.6067 17.7359 
315 1 1 10.2711 24.1904 17.9851 
316 1 1 11.0344 23.7421 18.2802 
317 1 1 11.7859 23.1791 18.6079 
318 1 1 12.4414 22.5145 18.975 
319 1 1 13.0512 21.6843 19.3625 
320 1 1 13.5235 20.7824 19.6949 
321 1 1 6.06451 25.1291 17.4913 
322 1 1 5.36602 24.7344 17.4646 
323 1 1 7.5571 25.0178 17.3349 
324 1 1 6.76099 24.8735 17.1654 
325 1 1 3.33805 19.1881 23.4921 
326 1 1 3.87192 18.748 23.822 
327 1 1 4.7249 18.21 24.2049 
328 1 1 5.52239 17.6342 24.1539 
329 1 1 13.8456 19.8293 19.9862 
330 1 1 13.5535 19.4555 20.8332 
331 1 1 6.31572 17.5455 24.4997 
332 1 1 13.0742 19.071 21.6439 
333 1 1 12.4699 18.7667 22.3614 
334 1 1 11.7576 18.4746 23.0201 
335 1 1 7.18564 17.2623 24.396 
336 1 1 8.11976 17.52 24.6174 
337 1 1 9.19963 17.7057 24.4212 
338 1 1 10.1126 17.9644 24.0877 
339 1 1 10.9594 18.2027 23.5868 
340 1 1 3.00602 23.339 18.9114 
341 1 1 2.38416 20.5581 21.2134 
342 1 1 2.59055 19.9653 21.8995 
343 1 1 2.99112 19.3845 22.6767 
344 1 1 2.69923 22.6879 19.2737 
345 1 1 2.45644 21.8884 19.8138 
346 1 1 2.34433 21.1925 20.4871 
347 1 1 2.65723 20.3743 20.3809 
348 1 1 3.51938 23.5921 18.3372 
349 1 1 4.17278 23.8055 17.7676 
350 1 1 4.98659 23.9792 17.2218 
351 1 1 8.12881 24.5483 16.9968 
352 1 1 8.92322 24.2904 17.0237 
353 1 1 9.78504 23.9466 17.147 
354 1 1 10.6124 23.566 17.3642 
355 1 1 11.4368 23.0893 17.6561 
356 1 1 12.1817 22.5048 17.9931 
357 1 1 12.8436 21.8406 18.362 
358 1 1 13.4622 21.0172 18.7462 
359 1 1 13.9505 20.1116 19.0622 
360 1 1 6.02559 24.2852 16.8803 
361 1 1 7.2504 24.253 16.6254 
362 1 1 3.63681 18.638 22.9591 
363 1 1 4.25839 18.0742 23.2732 
364 1 1 5.02449 17.4457 23.4567 
365 1 1 5.85974 17.0749 23.6857 
366 1 1 14.2582 19.1414 19.368 
367 1 1 13.9963 18.8135 20.2 
368 1 1 13.5137 18.434 21.0221 
369 1 1 6.72343 16.8303 23.8152 
370 1 1 12.885 18.1027 21.7392 
371 1 1 12.1768 17.8143 22.3868 
372 1 1 11.3726 17.5676 22.939 
373 1 1 7.67607 16.7921 23.9358 
374 1 1 8.64055 16.9183 23.9499 
375 1 1 9.58636 17.1078 23.766 
376 1 1 10.5095 17.3413 23.4009 
377 1 1 3.2381 22.5738 18.4442 
378 1 1 2.79222 19.7566 21.0191 
379 1 1 2.98911 19.2916 21.6633 
380 1 1 3.44586 18.6055 21.9518 
381 1 1 2.88022 21.7325 19.0259 
382 1 1 2.70582 21.0166 19.6248 
383 1 1 2.97071 20.1366 19.5674 
384 1 1 2.96971 19.6546 20.2396 
385 1 1 3.89795 22.9431 17.7192 
386 1 1 4.64168 23.1879 17.1051 
387 1 1 5.51908 23.4048 16.6229 
388 1 1 8.22875 23.9436 16.4423 
389 1 1 9.18015 23.6577 16.4196 
390 1 1 10.1317 23.3175 16.5405 
391 1 1 11.0169 22.9019 16.7471 
392 1 1 11.83 22.4083 17.0441 
393 1 1 12.5747 21.8261 17.38 
394 1 1 13.2396 21.1681 17.7434 
395 1 1 13.8644 20.3488 18.111 
396 1 1 14.3351 19.4664 18.4289 
397 1 1 6.48999 23.5342 16.2483 
398 1 1 7.50233 23.4655 15.9921 
399 1 1 3.94857 17.9866 22.2818 
400 1 1 4.57267 17.3689 22.6385 
401 1 1 5.31554 16.8208 22.8353 
402 1 1 14.6315 18.5297 18.731 
403 1 1 6.18967 16.442 23.0642 
404 1 1 14.3783 18.0983 19.589 
405 1 1 13.9467 17.7769 20.4015 
406 1 1 13.3294 17.466 21.1269 
407 1 1 7.13048 16.2542 23.2478 
408 1 1 12.5959 17.1565 21.7563 
409 1 1 11.7813 16.9066 22.3204 
410 1 1 10.8938 16.6982 22.7544 
411 1 1 8.08434 16.2035 23.3166 
412 1 1 9.03613 16.2853 23.2737 
413 1 1 9.96318 16.4371 23.0663 
414 1 1 3.28204 21.5692 18.3439 
415 1 1 3.7174 21.9178 17.7039 
416 1 1 3.24148 18.8692 20.8282 
417 1 1 3.6964 18.019 21.2303 
418 1 1 3.13941 20.7812 18.765 
419 1 1 3.26925 19.8338 18.8971 
420 1 1 3.30875 19.086 19.6007 
421 1 1 4.27751 22.2643 17.0923 
422 1 1 5.02085 22.5422 16.5091 
423 1 1 5.86721 22.7568 16.0572 
424 1 1 8.53626 23.2573 15.8391 
425 1 1 9.52371 22.9868 15.8033 
426 1 1 10.5174 22.6494 15.9344 
427 1 1 11.3964 22.2216 16.1342 
428 1 1 12.2119 21.7298 16.4288 
429 1 1 14.7158 18.8321 17.8092 
430 1 1 12.9651 21.1555 16.7589 
431 1 1 13.6375 20.5065 17.1175 
432 1 1 14.2592 19.6992 17.4804 
433 1 1 6.81391 22.833 15.6683 
434 1 1 7.85137 22.7466 15.3828 
435 1 1 4.22295 17.3449 21.6469 
436 1 1 4.88927 16.7009 21.9777 
437 1 1 5.69968 16.1851 22.2491 
438 1 1 15.015 17.8949 18.0626 
439 1 1 14.7854 17.4867 18.9414 
440 1 1 6.56927 15.8371 22.4505 
441 1 1 14.3534 17.0923 19.7917 
442 1 1 13.7566 16.7892 20.5245 
443 1 1 13.0213 16.507 21.1553 
444 1 1 7.52304 15.6423 22.6084 
445 1 1 12.1859 16.2482 21.7039 
446 1 1 11.3031 16.0346 22.146 
447 1 1 10.3554 15.7908 22.4196 
448 1 1 8.46775 15.5841 22.6586 
449 1 1 9.41635 15.6429 22.6003 
450 1 1 3.55985 20.9571 17.908 
451 1 1 4.03908 21.2875 17.1394 
452 1 1 3.5889 18.152 20.1447 
453 1 1 3.99496 17.3868 20.6275 
454 1 1 3.52684 20.0399 18.1447 
455 1 1 3.53853 19.1355 18.5917 
456 1 1 3.66661 18.2886 19.0771 
457 1 1 4.61433 21.5935 16.4747 
458 1 1 5.36533 21.8595 15.9098 
459 1 1 6.1943 22.0419 15.4363 
460 1 1 8.87231 22.5587 15.2311 
461 1 1 9.89795 22.3052 15.2075 
462 1 1 10.8908 21.9647 15.3178 
463 1 1 11.7756 21.5485 15.5137 
464 1 1 12.6009 21.0627 15.7993 
465 1 1 15.1016 18.176 17.1598 
466 1 1 14.6597 19.0531 16.8452 
467 1 1 13.3609 20.5035 16.1268 
468 1 1 14.0384 19.8623 16.4783 
469 1 1 7.20482 22.1037 15.0452 
470 1 1 8.21991 22.0271 14.7741 
471 1 1 4.55987 16.6708 21.0045 
472 1 1 5.26276 16.0497 21.3269 
473 1 1 6.08563 15.5571 21.5843 
474 1 1 15.3758 17.2461 17.4134 
475 1 1 15.1525 16.8701 18.2988 
476 1 1 14.7411 16.4477 19.1698 
477 1 1 6.96097 15.2174 21.7793 
478 1 1 14.1657 16.1171 19.91 
479 1 1 13.4372 15.8319 20.5578 
480 1 1 12.6108 15.5928 21.0926 
481 1 1 7.91216 15.0324 21.9323 
482 1 1 11.7161 15.3764 21.5174 
483 1 1 10.7701 15.1386 21.7749 
484 1 1 9.82034 14.9967 21.9308 
485 1 1 8.85464 14.9868 21.9995 
486 1 1 3.89151 20.2938 17.3338 
487 1 1 4.34434 20.5996 16.5745 
488 1 1 3.9211 17.4888 19.5481 
489 1 1 4.35147 16.7146 19.9968 
490 1 1 3.81875 19.3413 17.6799 
491 1 1 3.86702 18.4417 18.0462 
492 1 1 4.02752 17.6049 18.447 
493 1 1 4.96758 20.9067 15.8705 
494 1 1 5.71072 21.1593 15.2847 
495 1 1 6.56609 21.3261 14.8235 
496 1 1 15.5203 17.5212 16.5241 
497 1 1 9.24902 21.88 14.6475 
498 1 1 10.2673 21.6182 14.5902 
499 1 1 11.2552 21.2846 14.6769 
500 1 1 12.1582 20.8842 14.8882 
501 1 1 12.9966 20.4112 15.1669 
502 1 1 15.0806 18.4048 16.2164 
503 1 1 14.461 19.2226 15.8436 
504 1 1 13.7703 19.8615 15.4886 
505 1 1 7.57349 21.3869 14.448 
506 1 1 8.62115 21.3278 14.1738 
507 1 1 15.7891 16.5562 16.8324 
508 1 1 4.93617 16.0143 20.3542 
509 1 1 5.65668 15.4141 20.6633 
510 1 1 6.48699 14.9349 20.9168 
511 1 1 15.507 16.2054 17.6852 
512 1 1 15.1273 15.8231 18.5332 
513 1 1 14.5699 15.4657 19.2796 
514 1 1 7.37512 14.6005 21.1031 
515 1 1 13.848 15.1667 19.9365 
516 1 1 13.023 14.9232 20.4727 
517 1 1 12.1275 14.7334 20.8891 
518 1 1 8.33673 14.4312 21.259 
519 1 1 11.1797 14.5035 21.1272 
520 1 1 10.2404 14.3849 21.2802 
521 1 1 9.25905 14.3615 21.3089 
522 1 1 4.20506 19.6284 16.7822 
523 1 1 4.7084 19.9298 15.9686 
524 1 1 4.3147 16.8215 18.8701 
525 1 1 4.73017 16.0671 19.3453 
526 1 1 4.15459 18.6752 17.0829 
527 1 1 4.20802 17.7973 17.3957 
528 1 1 4.39519 16.9728 17.7779 
529 1 1 5.33156 20.2189 15.2471 
530 1 1 6.08883 20.4524 14.6606 
531 1 1 6.94897 20.6209 14.2009 
532 1 1 15.943 16.8338 15.9326 
533 1 1 15.5149 17.7538 15.6068 
534 1 1 9.6513 21.1875 14.0183 
535 1 1 10.6523 20.9371 13.9595 
536 1 1 11.6436 20.6179 14.0641 
537 1 1 12.552 20.2296 14.2598 
538 1 1 13.4033 19.7667 14.5345 
539 1 1 14.8872 18.5805 15.227 
540 1 1 14.1907 19.2251 14.8603 
541 1 1 7.96756 20.7014 13.819 
542 1 1 8.96852 20.638 13.5464 
543 1 1 16.1981 15.8718 16.2323 
544 1 1 15.9202 15.5308 17.0935 
545 1 1 5.32249 15.3716 19.6918 
546 1 1 6.05201 14.784 20.0025 
547 1 1 6.89121 14.3133 20.2482 
548 1 1 15.4993 15.1868 17.9126 
549 1 1 14.9346 14.8187 18.6445 
550 1 1 14.2383 14.5097 19.3081 
551 1 1 7.80491 13.9937 20.4289 
552 1 1 13.4133 14.2564 19.8518 
553 1 1 12.514 14.0657 20.2741 
554 1 1 11.5513 13.8462 20.4947 
555 1 1 8.74142 13.829 20.552 
556 1 1 10.6169 13.7572 20.6409 
557 1 1 9.68585 13.7697 20.6716 
558 1 1 4.55104 18.9926 16.1236 
559 1 1 5.0551 19.253 15.3127 
560 1 1 4.67881 16.1901 18.211 
561 1 1 5.09204 15.4293 18.6824 
562 1 1 4.47464 18.05 16.4014 
563 1 1 4.54259 17.1681 16.7424 
564 1 1 4.7403 16.3127 17.1215 
565 1 1 5.69699 19.5254 14.6129 
566 1 1 6.46467 19.7533 14.0307 
567 1 1 7.32987 19.9362 13.5733 
568 1 1 16.3198 16.1748 15.3351 
569 1 1 15.9273 17.0843 15.0045 
570 1 1 15.3051 17.9382 14.6106 
571 1 1 9.95995 20.4987 13.3926 
572 1 1 10.9958 20.2545 13.36 
573 1 1 12.0256 19.9612 13.4488 
574 1 1 12.9417 19.5804 13.6342 
575 1 1 13.8081 19.1249 13.911 
576 1 1 14.6086 18.5869 14.2496 
577 1 1 8.32628 20.009 13.1934 
578 1 1 9.3191 19.9601 12.934 
579 1 1 16.5673 15.2273 15.6024 
580 1 1 16.3002 14.8566 16.4869 
581 1 1 15.8695 14.502 17.2979 
582 1 1 5.69389 14.7295 19.0354 
583 1 1 6.43565 14.1404 19.3445 
584 1 1 7.28382 13.6884 19.5843 
585 1 1 15.3074 14.1629 18.0313 
586 1 1 14.6072 13.856 18.6782 
587 1 1 13.7995 13.6113 19.2158 
588 1 1 8.1809 13.3891 19.7425 
589 1 1 12.9019 13.4072 19.6465 
590 1 1 11.9436 13.1859 19.8797 
591 1 1 10.9989 13.0881 20.0025 
592 1 1 9.11501 13.193 19.9137 
593 1 1 10.0722 13.0987 20.0356 
594 1 1 4.87578 18.2996 15.4665 
595 1 1 5.40464 18.5575 14.6733 
596 1 1 5.02483 15.5269 17.5506 
597 1 1 5.44942 14.7688 18.0396 
598 1 1 4.79926 17.3423 15.7579 
599 1 1 4.8812 16.4749 16.0936 
600 1 1 5.06543 15.6085 16.4977 
601 1 1 6.06343 18.8209 13.9832 
602 1 1 6.83469 19.0581 13.4047 
603 1 1 7.69076 19.239 12.9481 
604 1 1 16.6997 15.4848 14.7146 
605 1 1 16.9531 14.5295 14.934 
606 1 1 17.0421 14.8796 14.0727 
607 1 1 16.2898 16.421 14.3857 
608 1 1 15.6889 17.2749 13.9991 
609 1 1 15.0039 17.9266 13.6382 
610 1 1 10.3174 19.7941 12.7836 
611 1 1 11.3622 19.6047 12.7476 
612 1 1 12.4001 19.3015 12.8307 
613 1 1 13.3283 18.919 13.0289 
614 1 1 14.2084 18.4696 13.3237 
615 1 1 8.70099 19.3173 12.5664 
616 1 1 9.70138 19.2652 12.3209 
617 1 1 16.6825 14.1984 15.8114 
618 1 1 16.2533 13.8475 16.6487 
619 1 1 15.6897 13.4977 17.3957 
620 1 1 6.06055 14.0677 18.3955 
621 1 1 6.81184 13.4904 18.6961 
622 1 1 7.66042 13.0592 18.9215 
623 1 1 14.9997 13.2044 18.0569 
624 1 1 14.1948 12.9603 18.5923 
625 1 1 13.3035 12.7699 19.0227 
626 1 1 8.53385 12.7316 19.1124 
627 1 1 12.3339 12.5356 19.2619 
628 1 1 11.3927 12.4292 19.3825 
629 1 1 10.4447 12.4239 19.4066 
630 1 1 9.48645 12.5164 19.3192 
631 1 1 17.0526 13.491 15.1448 
632 1 1 17.3648 13.821 14.1798 
633 1 1 5.21882 17.58 14.8361 
634 1 1 5.76822 17.8563 14.0589 
635 1 1 5.35998 14.8302 16.9384 
636 1 1 5.80353 14.0778 17.4125 
637 1 1 5.15095 16.6449 15.1128 
638 1 1 5.20745 15.7541 15.5162 
639 1 1 5.40699 14.9055 15.8901 
640 1 1 6.43454 18.1277 13.3715 
641 1 1 7.20228 18.362 12.7822 
642 1 1 8.06845 18.5558 12.3298 
643 1 1 16.6418 15.7617 13.7585 
644 1 1 17.347 14.4446 13.3118 
645 1 1 16.9596 15.2072 13.1324 
646 1 1 16.0424 16.6022 13.3853 
647 1 1 15.3809 17.258 13.0245 
648 1 1 14.6094 17.8088 12.7136 
649 1 1 10.714 19.1514 12.1618 
650 1 1 11.7682 18.9412 12.137 
651 1 1 12.773 18.629 12.2468 
652 1 1 13.7451 18.2568 12.4589 
653 1 1 9.09233 18.6275 11.9525 
654 1 1 10.1035 18.6109 11.6876 
655 1 1 16.6164 13.155 15.9921 
656 1 1 16.047 12.8298 16.7507 
657 1 1 15.3657 12.5423 17.4313 
658 1 1 6.42008 13.3863 17.7604 
659 1 1 7.1729 12.8319 18.0481 
660 1 1 8.01873 12.3873 18.309 
661 1 1 14.5661 12.2909 17.9746 
662 1 1 13.6859 12.1144 18.3929 
663 1 1 12.7297 11.8975 18.6251 
664 1 1 8.91136 12.0443 18.5288 
665 1 1 11.7835 11.7777 18.7461 
666 1 1 10.8252 11.7679 18.7814 
667 1 1 9.86434 11.8305 18.6944 
668 1 1 16.95 12.4421 15.3836 
669 1 1 17.4041 12.7762 14.5393 
670 1 1 17.6299 13.6872 13.3583 
671 1 1 17.6157 14.0273 12.6746 
672 1 1 17.7154 12.9794 13.7248 
673 1 1 5.58959 16.891 14.1988 
674 1 1 6.14174 17.1702 13.4245 
675 1 1 5.71388 14.1123 16.3103 
676 1 1 6.15698 13.3719 16.7863 
677 1 1 5.5155 15.945 14.5174 
678 1 1 5.57764 15.0531 14.893 
679 1 1 5.76005 14.1965 15.2747 
680 1 1 6.81041 17.4374 12.7477 
681 1 1 7.5889 17.6742 12.1698 
682 1 1 8.44911 17.8689 11.7191 
683 1 1 16.4101 15.9475 12.7532 
684 1 1 17.2973 14.6894 12.3922 
685 1 1 16.7884 15.3785 12.1146 
686 1 1 15.7482 16.5976 12.4026 
687 1 1 14.9859 17.1541 12.0795 
688 1 1 14.1339 17.605 11.8334 
689 1 1 11.1285 18.504 11.5556 
690 1 1 12.1769 18.2588 11.556 
691 1 1 13.1928 17.9755 11.6696 
692 1 1 9.48073 17.9747 11.3402 
693 1 1 10.5118 17.9363 11.077 
694 1 1 16.3895 12.1361 16.1284 
695 1 1 15.7084 11.8685 16.8019 
696 1 1 14.9182 11.6225 17.3525 
697 1 1 6.7802 12.7061 17.1252 
698 1 1 7.53978 12.15 17.4488 
699 1 1 8.38938 11.6935 17.717 
700 1 1 14.0403 11.4509 17.7642 
701 1 1 13.0895 11.246 17.9868 
702 1 1 12.164 11.1524 18.1289 
703 1 1 9.29732 11.3713 17.9289 
704 1 1 11.23 11.1221 18.1496 
705 1 1 10.2633 11.1818 18.0707 
706 1 1 16.7355 11.4541 15.4961 
707 1 1 17.2995 11.7204 14.7448 
708 1 1 17.777 11.9632 13.887 
709 1 1 17.6979 13.9387 11.7908 
710 1 1 17.947 13.1965 12.6953 
711 1 1 18.0204 12.462 13.1479 
712 1 1 5.97365 16.2259 13.5728 
713 1 1 6.51947 16.4743 12.7925 
714 1 1 6.04435 13.3951 15.6996 
715 1 1 6.52642 12.6619 16.1605 
716 1 1 5.88326 15.2796 13.8881 
717 1 1 5.91579 14.3813 14.2782 
718 1 1 6.06018 13.5072 14.6536 
719 1 1 7.19438 16.7383 12.1369 
720 1 1 7.97747 16.9747 11.5804 
721 1 1 8.84582 17.1875 11.1284 
722 1 1 16.1281 15.9901 11.7466 
723 1 1 17.1492 14.7527 11.442 
724 1 1 16.5591 15.346 11.1398 
725 1 1 15.3591 16.5252 11.4356 
726 1 1 14.5089 16.9731 11.1834 
727 1 1 13.5595 17.3337 11.023 
728 1 1 11.5422 17.8173 10.9769 
729 1 1 12.5902 17.6193 10.9715 
730 1 1 9.88093 17.2891 10.7458 
731 1 1 10.9131 17.2782 10.5153 
732 1 1 16.0455 11.1779 16.1727 
733 1 1 15.2629 10.9435 16.7299 
734 1 1 14.3763 10.7741 17.1524 
735 1 1 7.15342 12.0099 16.5355 
736 1 1 7.90173 11.4454 16.8656 
737 1 1 8.75085 10.997 17.1262 
738 1 1 13.4175 10.5733 17.3696 
739 1 1 12.4856 10.4594 17.4847 
740 1 1 11.6062 10.4712 17.5518 
741 1 1 9.68689 10.6916 17.349 
742 1 1 10.6376 10.5127 17.4869 
743 1 1 17.0524 10.7197 14.8874 
744 1 1 16.3851 10.493 15.5537 
745 1 1 17.5763 10.9316 14.2075 
746 1 1 17.3491 9.97052 14.3019 
747 1 1 17.4434 14.1992 10.9324 
748 1 1 18.0025 11.1101 13.4901 
749 1 1 17.8979 13.4938 10.8659 
750 1 1 18.2031 11.6913 12.9766 
751 1 1 18.1608 13.007 11.7009 
752 1 1 18.2708 12.3595 12.3845 
753 1 1 6.32627 15.522 12.9618 
754 1 1 6.89611 15.7742 12.1828 
755 1 1 6.36861 12.7228 15.0665 
756 1 1 6.86397 11.9825 15.539 
757 1 1 6.22058 14.566 13.2816 
758 1 1 6.20771 13.6748 13.6578 
759 1 1 6.3672 12.8035 14.014 
760 1 1 7.58775 16.0356 11.5418 
761 1 1 8.36675 16.298 11.0005 
762 1 1 9.23643 16.5048 10.5402 
763 1 1 15.7699 15.8876 10.8001 
764 1 1 16.9131 14.693 10.5365 
765 1 1 16.1697 15.2407 10.1927 
766 1 1 14.91 16.3292 10.5372 
767 1 1 13.9631 16.6849 10.3591 
768 1 1 12.9479 16.9565 10.2999 
769 1 1 11.9288 17.1739 10.3864 
770 1 1 10.2958 16.6296 10.16 
771 1 1 11.3525 16.6336 9.90121 
772 1 1 15.5989 10.2486 16.1154 
773 1 1 14.7412 10.114 16.5638 
774 1 1 13.7812 9.96695 16.8449 
775 1 1 7.48833 11.3167 15.9383 
776 1 1 8.2359 10.7408 16.2717 
777 1 1 9.0933 10.2902 16.5621 
778 1 1 12.8225 9.81051 16.9348 
779 1 1 11.9203 9.7307 16.9363 
780 1 1 10.9828 9.78926 16.9091 
781 1 1 10.0219 9.98118 16.7933 
782 1 1 13.3434 9.26228 16.4637 
783 1 1 16.7323 9.79653 14.9295 
784 1 1 15.9499 9.59776 15.5158 
785 1 1 17.9508 10.1473 13.5104 
786 1 1 17.0869 9.13015 14.3318 
787 1 1 17.6142 9.34186 13.807 
788 1 1 18.0846 9.19173 13.1865 
789 1 1 17.3603 13.9684 9.97349 
790 1 1 17.971 13.149 9.95274 
791 1 1 18.3515 10.8216 12.817 
792 1 1 18.3391 12.7174 10.7606 
793 1 1 18.5321 11.4871 12.1646 
794 1 1 18.5231 12.1456 11.5026 
795 1 1 6.65917 14.8145 12.3834 
796 1 1 7.25494 15.0697 11.5932 
797 1 1 6.69636 12.0191 14.4325 
798 1 1 7.19804 11.2787 14.9485 
799 1 1 6.51984 13.8649 12.6651 
800 1 1 6.50808 12.9668 13.0042 
801 1 1 6.68519 12.1238 13.3919 
802 1 1 7.95072 15.3578 10.9416 
803 1 1 8.73714 15.642 10.3964 
804 1 1 9.64086 15.8583 9.94525 
805 1 1 15.2993 15.6853 9.90359 
806 1 1 16.5629 14.5613 9.58585 
807 1 1 15.7447 15.0172 9.31931 
808 1 1 14.3794 16.0405 9.73312 
809 1 1 13.3518 16.2929 9.63368 
810 1 1 12.315 16.4915 9.71342 
811 1 1 10.6904 15.9843 9.55718 
812 1 1 11.654 15.977 9.29137 
813 1 1 15.151 9.47684 15.9671 
814 1 1 14.2558 9.37529 16.3035 
815 1 1 7.82517 10.619 15.3433 
816 1 1 8.57312 10.0326 15.7032 
817 1 1 9.43003 9.57325 15.9938 
818 1 1 12.3381 8.93224 16.3302 
819 1 1 11.3182 9.02665 16.3166 
820 1 1 10.3559 9.23548 16.2052 
821 1 1 13.8273 8.76494 16.0558 
822 1 1 13.0832 8.60342 16.0626 
823 1 1 15.4908 8.91993 15.4854 
824 1 1 16.2853 8.82423 14.9121 
825 1 1 16.803 8.37999 14.3021 
826 1 1 18.4749 9.86482 12.6416 
827 1 1 17.5072 8.41323 13.6575 
828 1 1 18.1255 8.44738 12.9657 
829 1 1 18.5513 8.96461 12.4281 
830 1 1 16.9308 13.895 9.00536 
831 1 1 17.5242 13.4266 9.25902 
832 1 1 17.9928 12.8311 9.14577 
833 1 1 18.4481 12.4173 9.85668 
834 1 1 18.7337 10.5561 12.0006 
835 1 1 18.7417 11.8695 10.5963 
836 1 1 18.8214 11.2274 11.3036 
837 1 1 6.96307 14.1154 11.7693 
838 1 1 7.5785 14.3962 10.9814 
839 1 1 7.04855 11.3299 13.8254 
840 1 1 7.55974 10.5963 14.3551 
841 1 1 6.83359 13.1826 12.0124 
842 1 1 6.85149 12.2803 12.3938 
843 1 1 7.09013 11.4556 12.7431 
844 1 1 8.28817 14.7049 10.321 
845 1 1 9.0972 15.0174 9.77513 
846 1 1 10.0061 15.2289 9.32556 
847 1 1 14.7942 15.3589 9.09652 
848 1 1 16.2052 14.3285 8.7774 
849 1 1 15.3263 14.7141 8.57993 
850 1 1 13.7648 15.6488 9.00005 
851 1 1 12.6889 15.7504 8.98128 
852 1 1 10.9369 15.3368 8.97774 
853 1 1 11.7637 15.2811 8.70502 
854 1 1 14.6413 8.61763 15.7245 
855 1 1 8.18886 9.91031 14.7707 
856 1 1 8.94063 9.31605 15.1388 
857 1 1 12.532 8.12548 15.7215 
858 1 1 9.78906 8.85341 15.4184 
859 1 1 11.6502 8.27656 15.73 
860 1 1 10.6781 8.49629 15.6056 
861 1 1 13.5924 8.02938 15.6151 
862 1 1 12.9384 7.55692 15.2699 
863 1 1 15.3989 8.15364 15.1409 
864 1 1 16.1568 7.86111 14.5494 
865 1 1 16.8107 7.67347 13.996 
866 1 1 17.3527 7.4768 13.4334 
867 1 1 18.8851 9.64101 11.7698 
868 1 1 17.9008 7.70707 12.9554 
869 1 1 18.429 8.01585 12.2982 
870 1 1 18.9141 8.49036 11.3323 
871 1 1 16.5857 13.7246 8.32741 
872 1 1 17.3139 13.1341 8.3742 
873 1 1 18.0096 12.4489 8.46085 
874 1 1 18.4948 12.0459 9.02147 
875 1 1 18.8448 11.5641 9.64631 
876 1 1 19.0487 10.303 11.0804 
877 1 1 19.0477 10.9414 10.3623 
878 1 1 7.30235 13.4443 11.1265 
879 1 1 7.93049 13.746 10.3469 
880 1 1 7.46527 10.6715 13.2313 
881 1 1 7.96814 9.94097 13.7822 
882 1 1 7.20462 12.4875 11.3885 
883 1 1 7.30462 11.6104 11.7528 
884 1 1 7.54247 10.8269 12.2141 
885 1 1 8.64567 14.0779 9.69164 
886 1 1 9.4408 14.3792 9.13626 
887 1 1 10.3021 14.5681 8.7078 
888 1 1 14.2769 14.9075 8.3502 
889 1 1 14.9237 14.3229 7.93185 
890 1 1 15.788 13.9361 7.9224 
891 1 1 13.3011 15.1596 8.39879 
892 1 1 12.5045 15.1287 8.42264 
893 1 1 11.1573 14.6335 8.37592 
894 1 1 11.9207 14.6998 8.17038 
895 1 1 14.5118 7.71295 15.2136 
896 1 1 8.58611 9.22169 14.2074 
897 1 1 9.32072 8.60634 14.5551 
898 1 1 12.0315 7.48356 15.061 
899 1 1 10.1606 8.13585 14.821 
900 1 1 11.0523 7.75627 14.9846 
901 1 1 13.6613 7.27897 15.0336 
902 1 1 12.8624 6.97132 14.7115 
903 1 1 15.3307 7.35993 14.699 
904 1 1 16.0928 7.0758 14.154 
905 1 1 16.8133 6.79509 13.4668 
906 1 1 17.5475 6.92766 12.8779 
907 1 1 19.1317 9.31015 10.7193 
908 1 1 18.1211 7.13516 12.2365 
909 1 1 18.5857 7.49154 11.5201 
910 1 1 18.8473 7.77385 10.7832 
911 1 1 19.0475 8.41187 10.3374 
912 1 1 16.5282 13.2829 7.66211 
913 1 1 17.0668 12.7385 7.50526 
914 1 1 17.6757 12.3293 7.76799 
915 1 1 18.2692 11.757 8.12053 
916 1 1 18.7651 11.2042 8.73424 
917 1 1 19.0527 10.6401 9.34055 