ITEM: TIMESTEP
100000000
ITEM: NUMBER OF ATOMS
37074
ITEM: BOX BOUNDS pp pp pp
0 62
0 62
0 62
ITEM: ATOMS id mol type x y z vx vy vz 
1 1 3 61.5813 31.7611 46.8153 -0.0334161 0.109222 0.04674
2 1 1 61.0509 32.3045 46.6564 0.121074 0.0453358 0.0284908
3 1 3 60.7529 31.6294 47.267 0.080063 -0.108478 0.145133
4 1 1 60.1663 32.227 46.9892 -0.134085 -0.0380188 0.165355
5 1 3 61.3857 30.992 47.3624 -0.00967245 0.181577 0.0183984
6 1 1 59.8593 31.3606 47.5366 -0.0834478 -0.0747314 0.17228
7 1 3 59.2232 31.9155 47.2364 0.136346 -0.0955866 0.136813
8 1 1 61.8849 32.2145 46.2033 -0.110598 -0.0404996 0.27997
9 1 3 61.2626 32.9197 45.9243 0.00553197 0.14003 0.138723
10 1 1 60.4529 32.9468 46.3146 0.1752 -0.201123 0.0235985
11 1 3 59.6376 32.7881 46.6094 0.110717 0.102576 -0.19943
12 1 1 58.7393 32.6409 46.6735 0.158454 -0.0757379 0.0640402
13 1 3 0.360533 31.4314 46.4685 0.00275038 0.139203 -0.0469807
14 1 1 0.0341162 30.9844 46.9917 -0.0383749 -0.0128 0.112796
15 1 3 0.1095 30.2838 47.1977 0.0171159 0.0308735 -0.12461
16 1 1 60.5227 30.732 47.6995 0.0234086 -0.0682738 0.00260999
17 1 3 61.1954 30.097 47.6951 0.0354507 -0.0854689 -0.128619
18 1 1 58.3349 32.1154 46.9645 0.060602 -0.0335832 0.0101576
19 1 3 58.3695 31.4559 47.3384 -0.0690451 -0.190742 0.0602347
20 1 1 59.0066 30.9401 47.606 0.0049519 0.110172 -0.0171166
21 1 3 59.6097 30.4155 47.8411 0.0450472 -0.0270809 0.114276
22 1 1 0.933105 31.2658 46.0303 -0.00717017 -0.00630546 -0.081057
23 1 3 0.55448 32.1111 45.6969 0.0125427 0.0199149 0.0524161
24 1 1 61.9877 32.8606 45.4364 0.136241 -0.117037 0.00700785
25 1 3 61.5273 33.4472 45.1078 0.0787024 0.0704951 0.166811
26 1 1 60.6453 33.5586 45.4207 0.0154108 0.0307735 0.0569855
27 1 3 59.815 33.5014 45.7862 0.0827381 -0.0716048 0.126139
28 1 1 57.779 32.6118 46.5084 -0.0915226 0.101722 -0.0544182
29 1 3 58.9621 33.3189 45.9858 0.0138176 0.0690432 -0.0304074
30 1 1 58.086 33.1253 46.0296 0.0193416 0.0390992 -0.044682
31 1 3 0.776873 30.5314 46.5886 0.0651875 0.171968 0.0535063
32 1 1 0.601135 29.6368 47.0001 -0.0793637 0.0274593 0.0683832
33 1 3 61.8743 29.4697 47.4245 -0.0142525 -0.0348692 -0.0201598
34 1 1 60.3177 29.7221 47.9213 0.18733 0.145678 -0.00742369
35 1 3 61.1616 29.1072 47.7431 -0.0446689 0.15002 0.151183
36 1 1 57.6667 31.8567 46.9522 -0.13474 0.0203333 -0.0218328
37 1 3 57.4996 31.0251 47.3039 -0.0856856 0.0435716 0.142849
38 1 1 57.0301 32.1619 46.4865 -0.0210832 0.0202358 0.0265155
39 1 3 58.1727 30.6215 47.616 -0.0294847 0.0842592 -0.0407838
40 1 1 58.6998 29.9902 47.8786 0.106497 -0.0668405 0.0887737
41 1 3 59.4547 29.386 48.0336 -0.125224 -0.0546863 -0.181393
42 1 1 1.42201 30.63 45.8878 0.0291571 -0.0533707 0.0344728
43 1 3 1.48712 31.2721 45.1698 0.106492 0.0115161 0.0707839
44 1 1 1.08589 31.9725 45.037 0.0277955 -0.17505 -0.00334755
45 1 3 0.584028 32.5537 45.0274 -0.0850724 -0.0699663 0.0279664
46 1 1 0.252507 33.0541 44.6137 -0.0631251 0.160514 -0.164338
47 1 3 61.7286 33.5154 44.1242 -0.0845803 0.166402 -0.0239091
48 1 1 60.8528 33.883 44.5307 0.121467 0.175489 0.000936527
49 1 3 59.907 33.938 44.922 -0.0121328 0.112356 -0.0219211
50 1 1 59.0361 33.845 45.1798 -0.0241178 -0.127018 0.0978913
51 1 3 57.1853 32.8894 45.9321 -0.00217004 0.0599038 -0.00982671
52 1 1 58.2276 33.6992 45.3332 0.138397 -0.163212 -0.029315
53 1 3 57.5666 33.3448 45.5919 0.126943 0.0776515 0.052107
54 1 1 1.511 29.9589 45.9959 -0.206372 0.0875576 -0.0594467
55 1 3 1.98814 29.9808 45.1274 -0.220467 -0.0890542 -0.0684695
56 1 1 1.14796 29.6682 46.5135 0.0296804 -0.0712637 0.0387967
57 1 3 0.632127 28.96 47.0243 -0.0207451 -0.0378253 0.132651
58 1 1 1.58401 29.0112 45.9815 -0.113963 -0.0511374 -0.0223777
59 1 3 61.8785 28.5155 47.3942 -0.070449 -0.151289 -0.0233159
60 1 1 60.2509 28.7384 47.9259 0.144282 0.0364969 0.155519
61 1 3 61.1288 28.1751 47.6539 0.148684 0.0730269 0.0226365
62 1 1 57.514 30.304 47.5246 0.169203 -0.0169642 0.00546706
63 1 3 56.9308 31.3755 46.8569 0.175872 0.083726 0.138835
64 1 1 56.8185 30.468 47.114 0.0517724 0.0484207 -0.0203265
65 1 3 56.5672 32.4547 45.796 -0.0398689 -0.0961441 0.136115
66 1 1 56.3833 31.6948 46.2859 -0.00735528 0.177521 -0.111365
67 1 3 57.8353 29.7536 47.732 -0.0450599 0.013577 -0.200411
68 1 1 58.4538 29.0245 47.9131 -0.00236818 -0.0549953 0.0918738
69 1 3 59.3337 28.4571 47.964 0.00615644 -0.00471792 -0.149553
70 1 1 1.83753 30.8237 44.9436 0.149701 0.21524 -0.0635574
71 1 3 1.68251 31.4756 44.445 0.145064 0.0726612 0.140415
72 1 1 1.00545 32.4476 44.1404 0.0848163 0.0724977 0.0765783
73 1 3 0.433144 33.056 43.6186 -0.0304072 -0.13705 0.09958
74 1 1 61.8262 33.5586 43.2167 -0.0477401 0.0522719 0.187179
75 1 3 61.0266 33.966 43.5686 0.0760512 0.116648 -0.193081
76 1 1 60.0961 34.1925 44.0432 -0.0707988 -0.33373 -0.0987451
77 1 3 59.1632 34.2118 44.236 0.109431 0.112166 -0.031496
78 1 1 58.3522 34.1206 44.4834 -0.0396573 0.08014 -0.00251739
79 1 3 56.9212 33.2756 45.2466 -0.0437303 -0.0832776 -0.165309
80 1 1 57.4702 33.7869 44.7111 -0.0106725 0.113803 0.022658
81 1 3 56.2181 32.7596 45.0295 0.0540795 -0.0448985 0.0661335
82 1 1 2.27958 30.067 44.3022 0.0239742 -0.0510751 0.0700337
83 1 3 1.92336 29.1981 45.3176 0.0725419 0.0489133 0.0509498
84 1 1 2.2585 29.4145 44.664 0.0697933 0.00304466 0.0317896
85 1 3 1.24606 28.7084 46.4099 -0.0531693 0.0485634 -0.0210461
86 1 1 0.596366 28.0222 46.8643 -0.0254203 -0.0770603 -0.0312882
87 1 3 1.67295 28.3487 45.7054 -0.0585403 0.119632 0.0503583
88 1 1 61.8099 27.5874 47.141 -0.0224935 0.041363 0.19763
89 1 3 60.1955 27.8631 47.7023 0.0677946 0.0623453 -0.0862209
90 1 1 60.9473 27.2671 47.331 -0.0815007 -0.0250477 0.0970622
91 1 3 57.0492 29.4262 47.4066 -0.0918794 0.0255251 0.0614891
92 1 1 56.2684 30.7832 46.6046 -0.091508 -0.088668 -0.061367
93 1 3 56.2675 29.8611 46.8274 0.0877476 -0.0299994 0.0231585
94 1 1 55.826 31.9053 45.5115 0.0562243 0.0671402 0.0665044
95 1 3 55.7408 31.0285 46.0445 0.0289929 0.126174 -0.0127882
96 1 1 57.6714 28.7377 47.6465 0.0628203 0.0861584 -0.00735699
97 1 3 58.4329 28.108 47.8302 0.0334007 -0.0562456 0.00231811
98 1 1 59.338 27.5087 47.6583 -0.0561572 -0.322642 -0.139615
99 1 3 2.12904 30.8589 43.896 0.0248597 0.162085 0.116803
100 1 1 1.73974 31.7561 43.5168 0.00835517 -0.173461 0.064429
101 1 3 1.23192 32.4327 43.0565 -0.0410252 0.0212935 0.0519736
102 1 1 0.579304 33.0365 42.6535 0.137755 0.00920823 0.0543422
103 1 3 61.2385 33.8817 42.7789 0.0335734 0.0616657 -0.114447
104 1 1 61.7811 33.5309 42.3632 -0.034834 -0.0273387 0.0641378
105 1 3 60.2141 34.2125 42.9185 -0.0321949 -0.132705 0.0878134
106 1 1 59.2871 34.3337 43.3732 -0.25803 0.0885611 0.167608
107 1 3 58.3631 34.2953 43.632 -0.0776124 -0.0794375 0.0468471
108 1 1 57.7963 34.0812 43.8667 0.0368687 -0.0291389 -0.00309151
109 1 3 55.505 32.1564 44.7363 0.00542169 0.165184 -0.0501992
110 1 1 56.6155 33.4082 44.3911 -0.178062 -0.118854 -0.0978736
111 1 3 57.1118 33.7489 43.7438 -0.0062125 0.0286584 0.0469693
112 1 1 55.8522 32.8193 44.1628 -0.0882028 -0.0668442 -0.158188
113 1 3 2.41603 29.176 43.957 -0.129413 0.112445 -0.153471
114 1 1 2.42059 30.0667 43.4347 -0.0619879 0.0030504 0.0987655
115 1 3 2.1763 28.3907 44.6409 0.0186836 0.251945 -0.0659983
116 1 1 2.42188 28.3146 43.7146 -0.0841623 -0.227018 -0.0117005
117 1 3 1.24477 27.7131 46.1156 -0.0303242 -0.108631 0.0511114
118 1 1 0.512281 27.0962 46.4398 -0.19469 -0.123786 -0.147401
119 1 3 1.64199 27.51 45.1621 -0.00877891 -0.0703844 0.158645
120 1 1 61.5664 26.7102 46.7898 -0.0383821 0.0160862 0.00130063
121 1 3 60.0786 26.9278 47.3126 -0.059156 0.12724 -0.0612429
122 1 1 60.9269 26.4298 46.8421 0.150164 0.163906 -0.0593337
123 1 3 56.7805 28.4334 47.1769 0.0461069 -0.0057596 0.139827
124 1 1 56.366 29.0383 46.9349 -0.103881 0.0252694 0.0436244
125 1 3 55.7035 30.0805 46.2541 0.107251 -0.0374134 -0.0276362
126 1 1 55.9295 29.1848 46.5335 -0.0354063 0.181124 -0.00535041
127 1 3 55.2187 31.3314 45.2271 0.276663 -0.0555461 -0.0650198
128 1 1 55.1141 30.5428 45.5401 -0.111117 0.0276366 0.0213855
129 1 3 54.7941 31.5398 44.459 0.0530542 -0.179441 -0.130387
130 1 1 59.2307 26.6999 47.1537 0.0452073 0.343721 0.0277846
131 1 3 57.5229 27.9255 47.407 -0.255049 -0.003857 -0.051721
132 1 1 58.4425 27.0427 47.3172 0.123218 0.0133725 -0.113408
133 1 3 2.21154 30.9982 43.0166 0.0393513 0.0962334 0.100898
134 1 1 1.77333 31.7489 42.6364 -0.0395191 0.115928 -0.126542
135 1 3 0.250852 33.0968 41.8509 0.116382 0.173218 0.0991184
136 1 1 1.2466 32.2951 42.1694 0.200912 0.0186579 0.165733
137 1 3 0.7524 32.6502 41.729 0.129237 0.0502571 -0.137947
138 1 1 60.9433 33.9291 42.1049 -0.266044 0.00908185 -0.190212
139 1 3 61.633 33.4149 41.5772 0.0145199 -0.0343417 -0.133961
140 1 1 60.1269 34.1382 41.8771 0.0738791 -0.178062 0.0794
141 1 3 59.2606 34.3043 42.4825 -0.090247 -0.0418677 -0.0144444
142 1 1 58.6405 34.324 42.9093 0.128382 -0.19356 -0.0621303
143 1 3 57.72 34.0626 42.9637 -0.0522731 0.0230933 0.0115058
144 1 1 55.1091 32.2453 43.9384 0.132821 0.167081 0.119514
145 1 3 56.3413 33.3319 43.5329 -0.0228483 0.181882 0.0670251
146 1 1 56.8882 33.6675 43.0988 0.0222364 -0.162382 0.0413774
147 1 3 55.5496 32.895 43.3026 -0.104693 0.254196 -0.134204
148 1 1 2.53314 29.0828 43.1427 0.0830919 0.0866175 0.0929599
149 1 3 2.46231 30.036 42.5905 0.100977 -0.214505 -0.0163493
150 1 1 2.03957 27.3733 44.1932 0.0172878 -0.0151213 0.145729
151 1 3 2.46512 28.3026 42.8115 0.161018 0.00582872 0.124378
152 1 1 2.25113 27.3889 43.2384 -0.0971261 0.0102748 -0.235031
153 1 3 1.04492 26.8341 45.5735 0.0779553 -0.00668274 0.116465
154 1 1 0.219936 26.293 46.0479 -0.0305312 -0.152885 -0.028523
155 1 3 1.49794 26.7401 44.698 0.173929 -0.165758 -0.0155212
156 1 1 61.2665 25.935 46.2525 0.0334404 -0.122809 0.0705067
157 1 3 60.0243 26.1647 46.8249 -0.0246786 0.0110018 0.0998195
158 1 1 60.6467 25.8201 46.4415 0.0555868 -0.0264365 -0.0318992
159 1 3 56.848 27.7563 46.9878 -0.0873753 -0.0721416 -0.0252897
160 1 1 56.088 28.1626 46.5547 -0.0200707 0.17655 -0.0749096
161 1 3 55.5053 28.6121 46.071 0.0884296 0.207095 0.0227742
162 1 1 55.1402 29.4602 45.8207 0.0844549 0.00743095 0.176556
163 1 3 54.6402 30.7883 44.8127 0.0521525 0.0143282 -0.0857516
164 1 1 54.5936 30.108 45.1136 0.101035 -0.0152013 0.0122226
165 1 3 54.3516 31.7624 43.7079 0.0788758 0.0414736 -0.0149919
166 1 1 54.3371 31.1803 44.3105 -0.00325633 -0.153531 -0.061442
167 1 3 58.6622 26.2904 46.8973 0.106336 0.0246306 0.160507
168 1 1 59.2817 25.9409 46.7315 0.128447 0.131317 0.00203461
169 1 3 57.3351 27.115 46.9526 -0.0531534 0.0495446 -0.0264603
170 1 1 57.8836 26.3655 46.7228 -0.0357302 0.25143 -0.139463
171 1 3 2.15004 30.8703 42.0825 -0.0455245 0.14292 0.147822
172 1 1 1.68874 31.5849 41.6447 0.0459918 -0.0547791 0.0318267
173 1 3 0.138222 32.9152 41.2101 -0.171009 0.208639 0.123339
174 1 1 1.13162 32.0188 41.1114 -0.243365 -0.0261113 0.227795
175 1 3 0.558085 32.4653 40.9956 -0.0935744 0.0620234 0.0999242
176 1 1 61.503 33.143 40.7721 0.134716 0.00762623 0.0161453
177 1 3 60.7727 33.6834 41.239 -0.0196063 -0.152094 -0.0675198
178 1 1 59.9069 33.7623 41.0081 0.0450942 -0.00163307 0.0275508
179 1 3 59.1417 34.0824 41.6334 0.0109997 -0.188535 -0.0242561
180 1 1 58.3685 34.1616 42.2594 -0.0185939 -0.0303562 0.0295599
181 1 3 57.6594 33.8969 41.905 0.0285218 0.0833112 -0.096392
182 1 1 57.1237 33.7606 42.2542 0.120609 0.00675921 0.0823302
183 1 3 54.7178 32.4641 43.0044 0.0130116 -0.115196 0.188485
184 1 1 54.0231 31.8673 43.0514 0.0656083 0.0303207 -0.0513904
185 1 3 56.2263 33.4012 42.594 -0.0813107 0.053608 0.134478
186 1 1 55.2846 32.9873 42.5484 0.064012 -0.156539 -0.00155925
187 1 3 2.44484 29.1303 42.2368 -0.0150636 0.0195865 0.0960447
188 1 1 2.19231 29.9252 41.6729 -0.0409804 0.0582873 -0.0970103
189 1 3 1.78663 26.6029 43.8579 0.0480405 -0.0141515 -0.0172719
190 1 1 1.80481 26.4416 43.0637 0.0558674 0.167934 -0.0759534
191 1 3 2.2661 28.3541 42.0318 0.0286522 -0.0993594 -0.0337766
192 1 1 2.18356 27.6788 42.3136 -0.116409 -0.076785 0.0653305
193 1 3 1.96961 26.9151 42.4702 -0.0634958 0.0720636 -0.0539836
194 1 1 0.710125 26.0315 45.0951 0.151309 0.256544 -0.104762
195 1 3 61.8363 25.6072 45.4453 -0.0521037 -0.078935 -0.0521885
196 1 1 1.05925 25.9069 44.2624 0.138813 0.0398221 -0.10275
197 1 3 60.7986 25.2548 45.7202 0.0255617 -0.0629388 -0.0538358
198 1 1 59.9595 25.4571 46.2165 -0.0268276 -0.0593652 -0.127043
199 1 3 56.5186 27.2989 46.5233 -0.0166415 0.0561609 0.0675179
200 1 1 56.0224 27.3797 46.1706 0.00475293 -0.00612388 0.125644
201 1 3 55.4485 27.9073 45.919 -0.0479728 -0.0161781 -0.0172921
202 1 1 54.976 28.4925 45.5202 -0.0524878 0.045026 -0.0066034
203 1 3 54.3763 29.2421 44.9716 0.0759194 0.119407 0.00563866
204 1 1 53.9716 30.2054 44.4059 0.101886 0.095249 -0.0234712
205 1 3 53.6868 31.0156 43.6127 -0.0965469 -0.0768542 -0.0666472
206 1 1 58.432 25.6714 46.4523 -0.10187 0.176951 -0.0630865
207 1 3 59.0768 25.2504 46.0346 0.178936 -0.0800835 -0.149628
208 1 1 57.0618 26.4898 46.4186 -0.106946 0.173337 -0.172585
209 1 3 57.657 25.6924 46.1309 -0.023098 0.0413104 0.0304818
210 1 1 1.89223 30.7202 41.2366 -0.102386 0.0036845 -0.0776571
211 1 3 1.45247 31.2221 40.7427 0.0863999 -0.0192595 0.159517
212 1 1 0.0622647 32.5193 40.4173 0.0863042 -0.026261 0.0168726
213 1 3 0.683186 31.7833 40.3056 0.171207 0.0459496 -0.00130085
214 1 1 61.2114 32.7244 40.1096 0.0662788 -0.0351247 0.060245
215 1 3 60.592 33.3327 40.4924 0.0151721 0.0201572 -0.101912
216 1 1 53.46 31.4022 42.6142 0.0414636 0.0506728 -0.00246936
217 1 3 53.9745 32.171 42.2732 0.115837 -0.127011 -0.0328609
218 1 1 59.7003 33.245 40.1754 -0.0553978 -0.0272386 -0.146371
219 1 3 59.0499 33.6021 40.7193 0.00848124 0.254857 0.146939
220 1 1 58.2849 33.8398 41.2681 0.0588196 0.113867 0.15604
221 1 3 57.2546 33.6844 41.3294 0.00422997 -0.0414179 -0.110834
222 1 1 56.4594 33.4871 41.5815 -0.279951 -0.0388249 0.10899
223 1 3 54.735 32.6732 42.1225 -0.130518 -0.00165825 0.0211469
224 1 1 55.5099 33.1517 41.8153 -0.227212 -0.0103785 0.0637594
225 1 3 1.83691 29.8146 40.7405 0.18856 -0.120786 0.162336
226 1 1 2.09201 28.8412 41.267 0.0417101 0.0258197 -0.140039
227 1 3 1.23191 25.8364 43.3972 -0.12729 0.0270134 0.153698
228 1 1 1.35793 25.94 42.6666 -0.0146207 -0.0132723 -0.127907
229 1 3 1.5797 26.3911 42.2376 -0.140489 -0.11173 0.119876
230 1 1 1.97096 27.8569 41.4637 -0.0762257 -0.181441 -0.167635
231 1 3 1.82748 27.1086 41.7824 0.106068 0.00922567 -0.0107824
232 1 1 0.211204 25.3567 44.5636 0.0443968 0.0179234 0.123721
233 1 3 61.4622 25.0196 44.6868 0.0589196 -0.166939 -0.11337
234 1 1 0.5268 25.322 43.7846 0.015508 -0.0589555 0.0578227
235 1 3 60.5647 24.7393 44.7968 0.0887638 0.271195 0.030317
236 1 1 59.7968 24.9081 45.5002 0.0686989 -0.218971 0.00936152
237 1 3 56.3243 26.7068 46.0183 -0.0255689 -0.000324918 -0.178157
238 1 1 55.591 27.0137 45.4759 -0.0121372 -0.220074 0.0641064
239 1 3 54.8421 27.6906 45.1311 0.279189 -0.0334706 0.114186
240 1 1 54.2744 28.4171 44.8188 -0.140984 0.0172162 -0.00377781
241 1 3 53.6998 29.098 44.2748 -0.00898727 0.0889132 -0.0298196
242 1 1 53.2605 29.8575 43.7045 0.0704771 0.020533 -0.07638
243 1 3 53.0985 30.542 43.0022 -0.114806 0.0962675 0.113785
244 1 1 58.212 25.1605 45.6753 0.0822193 0.05575 0.0577906
245 1 3 58.9518 24.7847 45.2053 0.00627375 0.0537599 -0.024077
246 1 1 56.7843 25.8626 45.6773 0.083085 0.0325867 0.146035
247 1 3 57.3636 25.2679 45.3261 0.151713 0.00358927 0.025124
248 1 1 1.47836 30.4815 40.377 -0.127381 -0.0642032 0.0511228
249 1 3 1.00815 31.011 40.0881 0.0219396 -0.111625 -0.101107
250 1 1 61.8757 31.9739 39.7562 -0.0823674 0.0203857 -0.208898
251 1 3 0.37833 31.1957 39.644 -0.128358 -0.046825 -0.0385264
252 1 1 61.005 32.0576 39.3378 0.177789 0.102521 0.0709881
253 1 3 60.3697 32.7629 39.7024 -0.00328802 0.0118196 0.106875
254 1 1 52.8054 31.0828 42.0727 0.0528248 0.0296067 -0.0419325
255 1 3 53.3014 31.7989 41.7452 0.0625601 0.0207023 0.109599
256 1 1 54.0051 32.4385 41.4328 0.0345803 0.045715 -0.00581349
257 1 3 59.5446 32.7746 39.4672 -0.0242341 -0.00763019 -0.142226
258 1 1 58.8275 33.1898 39.9068 0.125022 -0.111051 -0.097541
259 1 3 58.3474 33.4267 40.322 0.0264451 -0.000666428 0.0696256
260 1 1 57.4851 33.4742 40.4589 -0.0336915 0.0844873 -0.188733
261 1 3 56.6051 33.3738 40.56 -0.138984 -0.00519248 -0.146151
262 1 1 55.7066 33.1935 40.9669 -0.0263219 0.100663 0.180068
263 1 3 54.8952 32.8041 41.146 0.0161928 0.149268 -0.0333558
264 1 1 1.45544 29.7964 40.1621 -0.0410548 -0.108921 0.200457
265 1 3 1.57639 29.0321 40.2692 -0.0487829 -0.0864124 -0.182168
266 1 1 1.64621 28.0651 40.6038 -0.271844 0.109614 -0.26774
267 1 3 0.496844 25.2612 42.8617 0.0328471 -0.00802692 0.0624482
268 1 1 0.945514 25.7394 42.0876 -0.0551638 0.0679054 -0.0823368
269 1 3 1.31966 26.4389 41.5621 -0.0617848 -0.0548265 -0.015383
270 1 1 1.51539 27.2356 41.0465 -0.120606 0.00477758 0.0646495
271 1 3 61.7657 24.9233 43.8282 -0.00716662 0.00313956 -0.0681101
272 1 1 61.08 24.6703 44.1247 0.0247131 -0.00842767 -0.0160602
273 1 3 61.8821 24.8681 43.2329 0.0571446 0.012009 -0.0811561
274 1 1 60.4434 24.4611 43.9481 0.06656 0.187972 -0.164731
275 1 3 59.6945 24.5373 44.6498 -0.0276879 0.148247 0.0589577
276 1 1 56.0355 26.0816 45.2131 -0.0219178 0.0690263 0.0125183
277 1 3 55.3925 26.2237 44.7657 0.0406268 -0.154005 -0.0148266
278 1 1 54.8195 26.8327 44.7226 -0.186285 -0.169617 -0.0897584
279 1 3 54.1486 27.4607 44.4597 -0.0614633 0.0239157 0.133286
280 1 1 53.5771 28.2071 44.0314 -0.0277638 0.0663831 0.0727965
281 1 3 52.9796 28.9301 43.5616 -0.0156669 -0.130915 -0.00447931
282 1 1 52.5704 29.6198 42.9822 -0.220448 0.104877 -0.0596897
283 1 3 52.3635 30.3338 42.2576 -0.169838 0.193344 -0.214246
284 1 1 58.0606 24.712 44.9013 0.0286561 -0.141689 -0.0412815
285 1 3 58.7433 24.4536 44.4021 -0.0436901 0.110368 -0.0327073
286 1 1 56.5385 25.3731 44.8986 -0.0315617 -0.136941 -0.18701
287 1 3 57.1779 24.7694 44.6635 -0.0105866 -0.161369 0.0820491
288 1 1 0.878629 30.3203 39.6317 0.0116324 0.11806 0.00948
289 1 3 61.6688 31.3925 39.1687 0.0603847 0.079136 0.138676
290 1 1 0.0510367 30.8202 39.1513 0.0714752 0.130061 0.220284
291 1 3 52.0808 30.8054 41.3826 0.0275898 0.125124 -0.0570481
292 1 1 60.7116 31.4705 38.708 0.117341 -0.0168984 -0.0734038
293 1 3 60.1814 32.1969 39.039 -0.0792786 0.109079 -0.0716483
294 1 1 52.6716 31.487 41.1354 -0.0715743 0.0882689 -0.130619
295 1 3 53.418 32.0998 40.8153 0.0451665 0.125091 -0.0903831
296 1 1 54.2416 32.5391 40.4939 0.0503977 0.0688687 0.0610087
297 1 3 59.2762 32.3375 38.8071 -0.121084 -0.190581 0.120504
298 1 1 58.877 32.8456 39.2675 -0.114302 0.0236902 0.0255507
299 1 3 57.8965 33.0179 39.5221 0.0337249 0.155116 0.139978
300 1 1 56.8678 33.1839 39.6862 0.257569 0.075257 0.015069
301 1 3 55.9706 33.1389 39.9355 0.036957 -0.243659 -0.0181818
302 1 1 55.074 32.879 40.2669 -0.023445 -0.190893 0.0109533
303 1 3 1.05561 27.4398 40.2726 -0.0505174 -0.202311 -0.245543
304 1 1 1.09884 29.3389 39.6834 0.150127 0.0874224 0.147632
305 1 3 1.09181 28.3827 39.8849 0.0495849 -0.223511 -0.0812905
306 1 1 61.682 24.8267 42.5373 0.0491592 0.0546441 -0.102889
307 1 3 0.183306 25.2268 41.9463 0.045613 0.186761 -0.0520018
308 1 1 0.686862 25.9192 41.3537 -0.0102786 0.177125 0.178603
309 1 3 0.939075 26.6057 40.8009 -0.145082 0.0136414 -0.11239
310 1 1 61.0588 24.6347 43.2517 -0.139005 -0.163084 -0.0253872
311 1 3 60.1735 24.3069 43.2144 0.0373785 -0.0139718 -0.111689
312 1 1 59.3741 24.2291 43.6747 0.0293106 0.105145 -0.0866998
313 1 3 55.7809 25.5311 44.4009 0.0471717 -0.0273429 -0.125164
314 1 1 54.9768 26.0367 44.2406 0.0717229 -0.0530814 -0.227091
315 1 3 54.1626 26.6115 44.0492 0.0310529 -0.130133 -0.044754
316 1 1 53.5056 27.2585 43.6946 0.120875 -0.0590279 -0.0288744
317 1 3 52.878 27.9651 43.3456 -0.0676097 0.125324 0.0110093
318 1 1 52.3464 28.613 42.8466 0.0864067 0.0869065 -0.122088
319 1 3 51.9402 29.4503 42.27 -0.0515319 -0.112946 0.037241
320 1 1 51.6554 30.0244 41.5407 -0.021911 0.0740013 0.0442153
321 1 3 57.8384 24.3106 44.1393 0.0708983 0.0195027 -0.0266514
322 1 1 58.373 24.1012 43.7191 -0.115274 -0.0141483 -0.14688
323 1 3 56.5004 24.8051 44.135 0.0620794 0.0356933 0.138817
324 1 1 57.0932 24.3905 44.0546 -0.135698 0.219019 -0.00179479
325 1 3 0.573593 29.4371 39.168 0.00212278 -0.0455347 0.0349224
326 1 1 0.236924 30.045 38.9478 -0.00985991 0.161536 -0.000803977
327 1 3 61.3484 30.6443 38.5935 -0.0108613 0.0485926 -0.0287392
328 1 1 60.4899 31.0235 38.1567 0.0891089 -0.0392715 0.211927
329 1 3 51.4464 30.6495 40.7113 0.0688488 0.141649 0.0561748
330 1 1 52.0155 31.344 40.4348 0.11828 -0.0305708 0.0758033
331 1 3 59.8645 31.6799 38.2936 -0.0739698 0.0824168 -0.05518
332 1 1 52.7904 31.8901 40.1595 -0.106993 0.00865689 0.0546716
333 1 3 53.5937 32.2997 39.8069 0.0314284 -0.188062 0.0390419
334 1 1 54.4893 32.5775 39.4581 0.0503339 0.0401067 0.0288409
335 1 3 59.0774 31.9085 38.1759 -0.124872 -0.0323092 -0.253296
336 1 1 58.3109 32.4803 38.5244 -0.121326 -0.0726058 -0.0276722
337 1 3 57.2488 32.7474 38.7371 -0.104045 0.0233593 -0.0740081
338 1 1 56.2858 32.9375 38.9795 -0.0319572 0.00670114 0.0759903
339 1 3 55.3521 32.8707 39.2008 0.130601 -0.102087 -0.0412407
340 1 1 61.1142 24.6241 42.1943 0.00114598 -0.098108 0.0808359
341 1 3 0.550727 26.8912 40.0331 0.129768 0.0232734 -0.10025
342 1 1 0.538538 27.7223 39.5658 -0.0703963 0.0981735 -0.111271
343 1 3 0.546726 28.5893 39.1502 0.010407 -0.0824862 -0.137592
344 1 1 61.4665 24.8597 41.7336 0.00479007 0.114406 -0.11205
345 1 3 61.9747 25.3781 40.9937 0.0299158 0.00727047 -0.0250055
346 1 1 0.294234 26.0525 40.461 -0.0672598 -0.0584726 -0.251862
347 1 3 61.9231 26.2921 39.7318 -0.0172266 0.0239593 -0.0242245
348 1 1 60.4437 24.3342 42.5753 -0.0142997 0.0277439 -0.0597887
349 1 3 59.6416 24.0104 42.6902 -0.0868763 0.00910909 -0.027397
350 1 1 58.664 23.8207 42.8653 -0.111536 -0.0521515 0.0417026
351 1 3 55.8363 24.8906 43.7559 -0.0782573 -0.223303 -0.0270662
352 1 1 55.1408 25.3102 43.6162 -0.130611 -0.159942 0.0542435
353 1 3 54.3373 25.7958 43.5535 0.0498787 0.0290023 -0.135672
354 1 1 53.6078 26.402 43.3312 0.127516 -0.161964 0.00748203
355 1 3 52.8491 26.9897 43.0296 0.152973 -0.0515726 0.028094
356 1 1 52.2313 27.6497 42.6734 -0.0771896 0.0566152 -0.165411
357 1 3 51.7784 28.3968 42.1659 0.0178 0.0490021 -0.0560836
358 1 1 51.2659 29.1399 41.5341 -0.0984395 0.101546 -0.190239
359 1 3 50.9765 29.8712 40.8635 0.00888553 -0.0939912 -0.0481618
360 1 1 57.5956 23.9448 43.2324 0.175212 0.0273879 0.0792205
361 1 3 56.4404 24.1924 43.2782 -0.0122681 0.150198 0.00896768
362 1 1 0.0425039 29.2295 38.6349 -0.0261958 -0.0221414 -0.161641
363 1 3 61.5302 29.744 38.3312 0.0632146 -0.0427336 -0.0661035
364 1 1 60.7058 30.3332 37.8732 0.0122729 0.0492198 0.158596
365 1 3 59.9388 30.9719 37.6637 -0.142159 -0.14933 -0.144824
366 1 1 50.7473 30.4174 39.9863 0.0859378 -0.0783656 -0.0594888
367 1 3 51.4034 31.0609 39.7699 0.0521622 -0.124413 0.144556
368 1 1 52.1536 31.6759 39.404 -0.0273715 -0.0397225 0.132646
369 1 3 59.2121 31.3825 37.5917 -0.00147078 0.175729 0.10712
370 1 1 52.9209 32.0605 39.1666 0.000143645 -0.115279 0.0524386
371 1 3 53.7962 32.3176 38.8396 0.2501 0.100884 -0.0469649
372 1 1 54.7551 32.5503 38.4849 0.154374 -0.0654033 0.0598079
373 1 3 58.3582 31.882 37.6327 -0.000322373 -0.101844 0.0415403
374 1 1 57.5819 32.2717 37.852 -0.0991215 -0.00728808 0.0356416
375 1 3 56.6683 32.5055 38.0258 0.185365 -0.041748 -0.0361768
376 1 1 55.6944 32.662 38.2929 -0.0897001 -0.158257 0.159986
377 1 3 60.5394 24.4672 41.4715 -0.140647 0.24776 0.0928941
378 1 1 0.0205184 27.0528 39.3104 -0.0525312 -0.0723556 0.00413219
379 1 3 0.085201 27.6892 38.9926 -0.112991 0.0263937 -0.0804617
380 1 1 61.7714 28.2267 38.3679 0.106036 -0.115172 0.0878926
381 1 3 61.209 24.9198 40.7267 0.0857792 0.0330198 0.206233
382 1 1 61.5995 25.4664 40.1177 0.01066 0.0760681 -0.0981048
383 1 3 61.3257 25.6977 39.2734 -0.011219 -0.11095 0.00988893
384 1 1 61.6181 26.4001 39.1189 -0.0262267 -0.0326629 -0.180384
385 1 3 59.7785 24.0598 41.844 -0.127526 0.130446 0.0134403
386 1 1 58.8857 23.6929 42.0583 0.0702044 -0.0287782 0.111477
387 1 3 57.882 23.6101 42.3012 -0.0161309 0.15169 -0.017382
388 1 1 55.5482 24.5596 43.1371 0.00559062 0.0484516 0.0395529
389 1 3 54.5842 24.9986 42.9566 -0.135993 -0.0213948 0.0246072
390 1 1 53.7121 25.5792 42.9101 -0.0644441 -0.0930049 -0.0225554
391 1 3 52.9135 26.0833 42.5901 -0.160223 -0.111557 0.0976179
392 1 1 52.2346 26.7141 42.312 -0.00329441 -0.177864 -0.0109913
393 1 3 51.7213 27.3675 41.9565 0.176162 -0.00229676 -0.129759
394 1 1 51.1879 28.0921 41.5149 -0.106509 0.0401449 0.0890319
395 1 3 50.6913 28.9478 40.8914 0.0765525 0.0977391 0.174992
396 1 1 50.3222 29.587 40.0943 -0.0849166 -0.0433244 0.0433784
397 1 3 56.8578 23.6423 42.3846 -0.0849336 0.0506361 0.00454393
398 1 1 55.8564 23.944 42.4787 0.0178175 -0.243492 0.107499
399 1 3 61.396 28.8426 37.9818 -0.0124548 -0.122698 -0.0727922
400 1 1 60.8456 29.458 37.566 0.0140916 0.0276546 -0.0143667
401 1 3 60.1544 30.0873 37.3147 0.0328869 -0.235998 0.0364651
402 1 1 50.1499 30.0343 39.3307 -0.0241831 -0.0532391 0.00930394
403 1 3 59.3281 30.548 37.0282 -0.0350016 0.0511314 0.109309
404 1 1 50.6683 30.7962 39.0641 0.0438851 -0.125515 -0.0955823
405 1 3 51.4126 31.4005 38.7933 -0.171173 0.0142118 -0.148314
406 1 1 52.2045 31.8942 38.3959 -0.00218583 0.0756102 -0.214798
407 1 3 58.6174 31.2058 37.0035 0.147196 0.00537942 -0.0505586
408 1 1 53.1291 32.1071 38.1041 -0.136156 0.00303425 0.120681
409 1 3 54.0874 32.2404 37.8089 0.0636643 -0.0379044 -0.0339999
410 1 1 55.1362 32.314 37.5015 -0.162922 -0.154841 -0.122598
411 1 3 57.6826 31.5524 36.943 -0.0278738 0.0982083 0.105574
412 1 1 56.9106 31.9394 37.1401 -0.0175068 -0.0875875 0.0492362
413 1 3 55.9888 32.208 37.3554 -0.0823196 0.0134373 -0.00796037
414 1 1 60.5967 24.578 40.4874 -0.16035 -0.133982 -0.017349
415 1 3 59.8714 24.1043 40.7571 0.120287 -0.0875976 0.115667
416 1 1 61.4935 27.0585 38.413 0.126117 0.0449215 0.0249054
417 1 3 61.1614 27.8167 37.7938 0.064731 -0.0247721 0.00383914
418 1 1 60.8657 24.9617 39.7419 0.0692471 0.0764713 0.0204694
419 1 3 60.7105 25.2248 38.8938 -0.00461498 0.117945 0.0172259
420 1 1 61.032 26.0384 38.3673 0.189417 0.0120376 -0.0885033
421 1 3 59.1245 23.7597 41.0424 0.0380467 0.00111794 -0.0287158
422 1 1 58.3014 23.5002 41.3635 0.195703 -0.0183961 -0.0601158
423 1 3 57.3251 23.2997 41.5343 0.0324569 -0.0683564 0.181621
424 1 1 54.8772 24.32 42.4283 0.101106 -0.0226046 0.010266
425 1 3 53.9409 24.765 42.2925 -0.0390912 -0.120124 -0.0952688
426 1 1 53.1493 25.2948 42.1534 -0.109934 -0.0963212 0.114084
427 1 3 52.3646 25.8199 41.8352 -0.0745561 -0.117611 -0.0214853
428 1 1 51.6693 26.4565 41.5157 -0.0356652 -0.107991 0.0876352
429 1 3 49.7669 29.1561 39.4173 -0.085834 0.124995 -0.0879565
430 1 1 51.1 27.1959 41.2273 0.106911 -0.0333645 0.00518752
431 1 3 50.5934 27.9159 40.7846 0.128498 -0.054071 -0.00531202
432 1 1 50.1105 28.6166 40.2131 -0.188454 0.0702615 -0.0878962
433 1 3 56.2851 23.4152 41.5992 0.0247634 -0.071128 0.104554
434 1 1 55.2712 23.7855 41.7449 0.0344071 0.211851 -0.0095004
435 1 3 60.8079 28.5551 37.2611 0.0135129 0.0541879 0.0260536
436 1 1 60.1248 29.263 36.8551 -0.031561 0.014887 0.0310157
437 1 3 59.3513 29.7998 36.6251 -0.00264062 0.0785159 0.15218
438 1 1 49.5225 29.7435 38.5408 -0.0921694 0.00355553 -0.124374
439 1 3 50.0845 30.4872 38.3467 0.0226732 -0.050213 0.102415
440 1 1 58.6333 30.3605 36.399 -0.00384892 0.0598157 -0.127397
441 1 3 50.7282 31.1715 38.0852 -0.079844 0.0328815 0.0665258
442 1 1 51.4836 31.6027 37.7732 0.0793956 0.146858 0.0319285
443 1 3 52.4494 31.9067 37.4944 -0.252077 0.180191 -0.0667224
444 1 1 57.8652 30.8753 36.2871 -0.143402 0.0496508 0.11287
445 1 3 53.3911 31.9812 37.1323 0.173815 0.0357 0.00756496
446 1 1 54.3829 32.0193 36.8898 -0.032713 -0.0692679 -0.144126
447 1 3 55.3158 31.9345 36.5294 -0.132815 -0.000903516 -0.044556
448 1 1 56.965 31.3649 36.281 -6.55458e-05 -0.0618111 0.0978944
449 1 3 56.1365 31.7602 36.4347 -0.010627 0.0782214 -0.0740221
450 1 1 60.1254 24.3261 39.8552 -0.0627771 -0.155877 0.110415
451 1 3 59.3531 23.8393 39.9643 0.166334 -0.0206718 0.0144713
452 1 1 60.8171 26.7784 37.6382 -0.108391 0.17961 0.0173157
453 1 3 60.5947 27.6555 37.0614 -0.121034 0.117804 0.0243189
454 1 1 60.2007 24.5942 38.9964 -0.103717 -0.0104423 0.193431
455 1 3 60.3415 25.1957 38.2216 0.0446305 -0.0408243 0.179879
456 1 1 60.4417 25.8887 37.527 -0.126969 -0.010731 -0.0153627
457 1 3 58.5317 23.5118 40.3396 0.0738074 0.0101228 -0.121164
458 1 1 57.6407 23.2608 40.6143 0.0393542 0.198182 0.0197122
459 1 3 56.5928 23.1292 40.7727 0.11903 -0.0345204 0.0892477
460 1 1 54.2692 24.0464 41.6921 -0.358601 0.19026 0.0691334
461 1 3 53.3943 24.4596 41.5819 0.174528 0.00488705 -0.0528462
462 1 1 52.4763 25.0463 41.4281 -0.0768859 0.158175 -0.0664823
463 1 3 51.7486 25.5388 41.0938 -0.0647338 -0.188898 -0.0248047
464 1 1 51.0325 26.2554 40.8251 -0.0520326 0.081674 -0.149794
465 1 3 49.1711 28.9017 38.6808 0.0177144 -0.121845 0.00392038
466 1 1 49.4553 28.36 39.4152 -0.0575666 0.0512926 -0.00338933
467 1 3 50.4543 26.9617 40.5037 -0.00346876 -0.0406737 0.14882
468 1 1 49.9484 27.6766 40.094 0.0242033 -0.0345482 0.047081
469 1 3 55.5538 23.1397 40.925 -0.0886639 -0.0296868 -0.0393675
470 1 1 54.6012 23.42 41.0527 -0.10554 0.0529459 0.0943393
471 1 3 60.145 28.3284 36.4902 0.0814976 -0.00872656 -0.174081
472 1 1 59.5246 28.8861 36.1394 -0.0253646 -0.0648979 -0.11142
473 1 3 58.8088 29.4757 35.8887 -0.131689 0.0803283 0.177194
474 1 1 48.8046 29.502 37.8153 0.0414906 -0.00417982 0.0402604
475 1 3 49.387 30.2188 37.5733 0.104033 0.121238 -0.066023
476 1 1 50.0838 30.8037 37.3782 0.0759363 -0.133019 -0.132498
477 1 3 58.1075 30.1416 35.6466 -0.0529876 -0.0230115 0.0414407
478 1 1 50.8821 31.2544 37.1013 -0.0208969 -0.156153 0.0226335
479 1 3 51.8033 31.5844 36.8579 0.0163854 0.0335577 -0.0324707
480 1 1 52.6699 31.7223 36.5045 0.164224 0.110652 0.0567532
481 1 3 57.2719 30.6725 35.5806 -0.0225983 0.0673779 0.108294
482 1 1 53.6517 31.7541 36.2002 -0.0430827 -0.139538 -0.133212