ITEM: TIMESTEP
100000000
ITEM: NUMBER OF ATOMS
37074
ITEM: BOX BOUNDS pp pp pp
0 62
0 62
0 62
ITEM: ATOMS id mol type x y z vx vy vz 
1 1 3 20.9584 58.2869 25.2224 -0.039443 -0.0738254 -0.0394486
2 1 1 20.6008 58.2313 24.4153 0.0576509 -0.0440833 0.00923005
3 1 1 20.1904 57.9663 25.1893 0.0630004 0.077295 -0.00146482
4 1 1 19.8137 57.8428 24.276 0.10547 -0.0515829 0.118337
5 1 3 20.607 57.8122 26.0016 0.0277011 0.0673501 0.0107576
6 1 1 19.524 57.4114 25.1785 0.0245053 -0.130363 -0.00530273
7 1 1 19.1112 57.1901 24.1873 -0.0849272 -0.0843901 0.104693
8 1 1 21.4593 58.5194 24.56 0.0919131 0.0174331 0.00439734
9 1 3 21.2194 58.4473 23.6371 -0.119091 -0.17809 0.293428
10 1 1 20.4285 58.0885 23.5186 0.113556 0.0134441 0.0472666
11 1 1 19.6845 57.6469 23.3952 -0.0722649 0.00817142 0.1097
12 1 1 19.0944 57.0179 23.1543 -0.061898 -0.0832689 0.0598375
13 1 3 21.8287 58.4553 25.4956 0.120343 -0.120578 0.0486638
14 1 1 21.2482 58.0841 25.8785 0.039024 -0.0222642 -0.0464669
15 1 1 21.3632 57.7522 26.5739 0.00122678 0.037196 -0.0686951
16 1 1 19.8991 57.3933 25.9951 0.0229809 -0.111202 -0.00579774
17 1 3 20.4858 57.2631 26.7349 0.0207912 0.0753798 0.00687822
18 1 1 18.7072 56.6152 23.6489 -0.12121 -0.0246161 0.143769
19 1 1 18.55 56.3521 24.4 -0.144836 0.00804384 -0.072551
20 1 1 18.8938 56.6869 25.0745 -0.142627 -0.0920519 -0.0121016
21 1 3 19.2165 56.7819 25.8934 -0.121812 -0.0835617 -0.00284156
22 1 1 22.5417 58.5555 25.566 -0.016349 -0.0573427 0.248748
23 1 1 22.2593 58.7039 24.5429 0.0274142 -0.0491427 -0.0852334
24 1 1 22.1088 58.6978 23.6728 -0.096502 -0.119047 0.0751912
25 1 3 21.9394 58.6368 22.9626 0.0744475 -0.0353264 -0.126093
26 1 1 21.1264 58.2874 22.6872 -0.105235 -0.0296506 0.105834
27 1 1 20.3389 57.8776 22.52 0.126462 -0.0289338 -0.0536556
28 1 1 18.6382 56.3449 22.869 0.224538 -0.021747 -0.103221
29 1 3 19.657 57.3874 22.3785 0.153032 -0.0361061 -0.0474804
30 1 1 19.1184 56.6969 22.183 -0.156003 -0.172651 0.157834
31 1 1 22.2219 58.1778 26.3886 0.191671 0.134071 0.047414
32 1 1 21.8945 57.5354 27.1121 -0.10111 -0.0276372 0.0483134
33 1 3 21.1246 57.1639 27.2887 0.114551 -0.0353922 0.2236
34 1 1 19.7031 56.6894 26.7625 0.213518 -0.0516073 -0.0888215
35 1 1 20.443 56.6927 27.4521 -0.0221702 0.0277129 0.220188
36 1 1 18.3112 56.0649 23.5839 0.0176476 0.0472391 0.0567176
37 1 3 18.1144 55.5501 24.279 0.0215202 0.0483879 -0.0169554
38 1 1 18.2947 55.6373 22.7911 -0.00775776 0.0441655 -0.0151398
39 1 1 18.4139 55.8119 25.185 0.0285034 -0.0333442 -0.0585043
40 1 1 18.665 55.8976 25.8313 -0.0312465 0.204383 -0.000440794
41 1 3 19.0816 56.0466 26.7415 0.0455029 -0.0133442 0.0490695
42 1 1 23.1815 58.3722 26.1011 -0.0504628 -0.104852 0.0390331
43 1 1 23.5197 58.6111 25.3017 -0.143904 0.0968285 -0.115096
44 1 1 23.1107 58.7009 24.5778 0.0052628 0.122164 0.00593376
45 1 3 22.7778 58.7609 23.8884 0.0214269 0.0212607 0.0357303
46 1 1 22.846 58.7296 23.1478 -0.0897373 -0.20969 0.0258337
47 1 1 22.8171 58.522 22.4199 -0.00101576 -0.129508 -0.0884393
48 1 1 21.8972 58.2991 22.1282 0.0236508 -0.0438295 -0.0235021
49 1 3 20.89 57.8707 21.8153 -0.0763993 -0.0369827 0.204976
50 1 1 20.2144 57.4037 21.5609 0.0149021 -0.00961915 -0.275422
51 1 1 18.7357 56.0311 22.0724 0.0780201 0.146245 -0.148752
52 1 1 19.6214 56.8765 21.4362 0.0585264 -0.0254452 -0.0923416
53 1 3 19.1327 56.3293 21.5872 -0.0631217 0.0474275 -0.0932786
54 1 1 23.1647 58.0139 26.7134 -0.0160037 0.178495 0.0901585
55 1 1 24.131 58.0309 26.3686 0.0166398 -0.0988479 0.00773072
56 1 1 22.6379 57.6706 27.1521 1.39818e-05 -0.179188 -0.0736686
57 1 3 22.0546 57.111 27.6884 0.168394 0.115217 0.0754767
58 1 1 23.4409 57.3795 27.5307 0.21922 0.0575602 0.04136
59 1 1 21.2978 56.5432 27.9688 0.164546 0.165996 -0.0805123
60 1 1 19.8173 56.0096 27.4563 -0.0784909 -0.0627741 0.112178
61 1 3 20.643 55.8928 28.0647 -0.115781 0.0240545 0.0327617
62 1 1 18.0741 55.1756 24.8902 -0.142102 -0.0969139 -0.0300555
63 1 1 17.9393 55.2517 23.4866 -0.0570573 0.152573 0.0738522
64 1 1 17.8488 54.708 24.2178 -0.0326875 -0.101537 0.128769
65 1 3 18.4453 55.2572 21.9527 -0.0991048 -0.126571 -0.0429817
66 1 1 18.0079 54.8308 22.6649 -0.10184 0.0707981 0.085156
67 1 1 18.181 55.0707 25.5565 0.118001 0.163485 0.179747
68 1 1 18.5773 55.2149 26.4725 0.137027 -0.0588163 -0.00788763
69 1 3 19.2682 55.287 27.2885 -0.0546468 -0.246714 -0.0381349
70 1 1 23.981 58.3968 25.6663 0.119823 0.0667038 -0.0984973
71 1 1 24.0474 58.5511 24.8241 -0.17204 0.0291475 -0.0965197
72 1 1 23.8765 58.6424 23.8036 0.12533 0.0886651 -0.0684687
73 1 3 23.7479 58.5266 22.7755 -0.133181 -0.109421 0.0623646
74 1 1 23.5457 58.307 21.9928 0.113453 0.0447191 0.0137314
75 1 1 22.6298 58.1014 21.5391 -0.0441999 0.117745 -0.106939
76 1 1 21.6844 57.7558 21.2526 -0.00672649 0.0831024 -0.0405948
77 1 3 20.9408 57.2983 20.9398 0.0904959 0.0352918 -0.0999936
78 1 1 20.3038 56.7821 20.7681 0.0561655 -0.0059406 -0.123327
79 1 1 18.9677 55.6736 21.2823 0.0246935 -0.0412918 0.0169362
80 1 1 19.6716 56.1149 20.7469 -0.0992247 0.120828 0.0556057
81 1 3 18.7284 54.8193 21.2171 -0.124838 -0.0329431 0.0402946
82 1 1 24.9461 57.8437 25.993 0.0738728 -0.17557 -0.0801786
83 1 1 24.1397 57.5077 27.1544 0.0746717 0.123672 -0.064184
84 1 1 24.6777 57.6306 26.7406 -0.0164838 -0.121875 0.119691
85 1 3 22.9651 57.0646 27.8775 -0.0409802 -0.0176879 0.0731429
86 1 1 22.2804 56.4619 28.2778 -0.122365 0.177955 0.0859507
87 1 1 23.8453 56.8534 27.9131 0.186279 0.0491338 -0.197418
88 1 1 21.6025 55.795 28.5086 -0.17885 -0.123834 0.0709977
89 1 3 20.032 55.2041 28.0405 -0.151406 0.0615267 0.0849063
90 1 1 21.0256 55.0959 28.5488 0.103145 -0.162423 0.00230134
91 1 1 17.8582 54.3148 25.2468 -0.110225 -0.000781563 0.0694842
92 1 1 17.7792 54.3892 23.5124 -0.0616662 0.0713338 0.00572968
93 1 3 17.7557 53.8045 24.3058 -0.0418365 0.0926057 0.0248675
94 1 1 18.2275 54.3451 21.895 0.139626 0.062374 0.0514387
95 1 1 17.9197 53.9133 22.7046 0.0698158 -0.0573534 0.00971193
96 1 1 18.2299 54.3722 26.2541 0.0655704 -0.033938 -0.160454
97 1 3 18.8496 54.4858 27.0288 -0.119852 -0.236029 -0.134188
98 1 1 19.5611 54.4327 27.8593 -0.0753536 0.106432 -0.0717779
99 1 1 24.8439 58.1794 25.2238 -0.104068 0.0175028 -0.00753522
100 1 1 24.8391 58.2702 24.2754 -0.141057 -0.0384331 -0.0642193
101 1 3 24.7884 58.2848 23.2664 0.0319902 -0.229379 0.0840454
102 1 1 24.523 58.1923 22.3801 -0.0138468 -0.0269068 0.10935
103 1 1 23.4237 57.9589 21.3686 -0.0240193 -0.103019 -0.104611
104 1 1 24.132 57.9345 21.5442 -0.0978019 0.0265781 0.0313235
105 1 3 22.6931 57.5181 20.7204 -0.0408416 0.0957891 -0.0271947
106 1 1 21.6756 57.0941 20.4632 -0.0264069 0.0307515 -0.121574
107 1 1 20.9601 56.5759 20.2643 0.0462507 0.214097 0.0817957
108 1 1 20.4348 56.1136 20.2576 -0.00144128 0.176627 0.0432349
109 1 3 18.5637 53.843 21.1875 -0.031059 -0.0454873 -0.0624182
110 1 1 19.3044 55.1969 20.5174 0.0482943 0.0787328 0.0083836
111 1 1 20.0887 55.508 20.1223 -0.179429 -0.00481559 -0.0021796
112 1 1 19.1413 54.2677 20.4582 0.0117213 -0.221303 -0.221196
113 1 3 25.2787 57.3207 26.6856 -0.237886 0.0499234 -0.0218412
114 1 1 25.5282 57.5492 25.7337 -0.00392501 0.0751136 -0.00316257
115 1 1 24.8983 56.817 27.519 -0.0152274 -0.00780264 -0.186392
116 1 1 25.7345 56.6165 27.1581 -0.0662931 -0.00587944 0.220602
117 1 3 23.3441 56.3597 28.4035 -0.204561 -0.045083 0.040126
118 1 1 22.7144 55.7226 28.743 0.0286412 0.0975046 -0.106569
119 1 1 24.3601 56.1059 28.2517 0.0746056 0.0579237 -0.0197441
120 1 1 21.9305 55.0585 28.8574 0.075359 0.0678236 -0.0288682
121 1 3 20.4631 54.3214 28.4682 0.0784971 -0.0140628 0.0328818
122 1 1 21.4652 54.3955 28.859 -0.066915 -0.183942 -0.0871849
123 1 1 18.05 53.461 25.9191 0.0993875 -0.0736541 0.0671983
124 1 1 17.8426 53.4691 25.0595 -0.13661 -0.105117 -0.0150599
125 1 3 17.8056 53.458 23.6368 0.0982939 -0.0954727 -0.0965711
126 1 1 17.8678 53.0381 24.4934 0.115738 0.0512742 -0.00963352
127 1 1 18.1927 53.411 21.9276 0.102888 -0.0518682 -0.0985027
128 1 1 17.9602 52.9619 22.6753 0.0480072 0.0151891 -0.0886391
129 1 3 18.4465 52.858 21.2276 -0.183891 0.0318741 0.0269298
130 1 1 20.0191 53.6304 28.2614 0.0440413 -0.136949 -0.13764
131 1 1 18.5238 53.6169 26.708 -0.0608413 0.00691945 -0.0880757
132 1 1 19.3119 53.4755 27.6507 -0.089573 0.0754718 0.162548
133 1 3 25.6137 57.8199 24.7987 -0.0509435 -0.0472967 -0.0160475
134 1 1 25.5032 57.9387 23.7824 0.129195 0.129652 -0.0558734
135 1 1 24.8002 57.647 21.6674 -0.00439241 0.0711787 -0.102025
136 1 1 25.371 57.8322 22.8636 0.123918 -0.0779906 0.0286224
137 1 3 25.3297 57.5778 22.1479 -0.0926562 0.0425272 -0.0489474
138 1 1 23.751 57.4807 20.8435 -0.0885459 0.163965 0.0291904
139 1 1 24.5322 57.3267 21.0567 -0.0200507 -0.0357706 0.0851449
140 1 1 23.4408 56.834 20.2197 0.00479339 -0.145255 0.0804889
141 1 3 22.4376 56.6947 19.9627 -0.0515402 -0.0110858 -0.0143753
142 1 1 21.6419 56.4664 19.954 -0.00382827 0.0732473 -0.049665
143 1 1 21.0925 55.806 19.8186 -0.18747 -0.131519 0.023459
144 1 1 18.9154 53.3768 20.517 -0.127211 -0.187981 -0.00854295
145 1 3 19.8091 54.8086 20.0219 -0.168261 -0.00784044 0.0581554
146 1 1 20.5188 55.1327 19.8154 0.106735 0.048763 0.074436
147 1 1 19.6686 53.7744 19.8313 -0.126201 -0.173981 0.136457
148 1 1 25.9289 56.9026 26.2684 0.0305966 -0.0812678 -0.0663396
149 1 3 26.2035 57.1506 25.2956 0.117314 0.06866 0.0809289
150 1 1 25.401 55.9257 27.9295 0.0794564 0.00732446 0.0452941
151 1 1 26.3548 56.2403 26.6521 -0.0771129 -0.124722 -0.0862576
152 1 1 26.1805 55.6297 27.4582 0.155199 -0.0423217 0.116272
153 1 3 23.7422 55.534 28.747 0.0613006 0.0612965 0.000968448
154 1 1 23.0238 54.9055 28.9945 -0.0940652 0.0916723 0.0813885
155 1 1 24.6775 55.39 28.4585 0.0223374 -0.0343507 -0.0325675
156 1 1 22.3001 54.1535 29.0998 -0.028592 -0.0488366 0.124653
157 1 3 20.9055 53.6373 28.7035 -0.140633 -0.0722257 -0.129231
158 1 1 21.6584 53.6935 28.9826 -0.0349745 0.0618552 0.0438676
159 1 1 18.4439 52.9226 26.2547 -0.0914607 0.104226 -0.130182
160 1 1 18.1199 52.6275 25.3615 -0.0272158 -0.257091 -0.0883093
161 1 3 18.0689 52.281 24.5509 -0.112822 -0.123359 -0.0756403
162 1 1 17.9473 52.493 23.6728 -0.0104945 0.0199787 -0.232517
163 1 1 18.1487 52.4684 21.9247 -0.051367 0.0494934 -0.0646809
164 1 1 18.0027 52.2395 22.6388 -0.113713 -0.0067849 0.0465204
165 1 3 18.7634 52.5246 20.4956 0.00913196 -0.0664289 0.0755619
166 1 1 18.4065 52.244 21.244 -0.0854769 0.0746086 0.0199981
167 1 1 19.8851 52.925 28.0046 -0.0928957 0.138961 0.0613083
168 1 1 20.569 53.0348 28.4533 -0.0276126 0.115957 -0.0417768
169 1 3 18.8872 52.7067 26.8315 -0.0210214 0.139789 -0.0377364
170 1 1 19.482 52.4971 27.4704 -0.0299966 -0.0604197 -0.124055
171 1 1 26.2748 57.4185 24.314 0.0493724 -0.145106 -0.128286
172 1 1 26.1709 57.383 23.3152 0.0586749 0.0295738 0.129737
173 1 3 25.2678 57.201 21.4647 0.0624646 -0.126797 -0.141726
174 1 1 26.1482 57.1834 22.5363 -0.0538616 -0.146693 0.0654425
175 1 1 25.8003 57.078 21.8433 -0.0370071 0.0646103 -0.0327931
176 1 1 25.1694 56.6938 20.8273 0.0576193 -0.0878391 0.118008
177 1 3 24.3161 56.7504 20.5283 0.107514 0.0717949 -0.0721623
178 1 1 23.9719 56.1906 19.8771 -0.0260145 -0.0588971 -0.0567165
179 1 1 23.0328 56.0569 19.5934 -0.0577048 0.0267193 0.0579605
180 1 1 22.0853 56.0171 19.6465 0.138267 0.141981 -0.130758
181 1 3 21.8041 55.3225 19.3737 0.0469516 0.272973 0.0841994
182 1 1 21.2728 54.9214 19.4345 0.0567499 0.00868174 -0.0529926
183 1 1 19.3951 52.9394 19.8074 -0.150608 0.103729 0.0586889
184 1 1 19.0086 52.0203 20.0139 0.0456554 0.0638906 0.132719
185 1 3 20.4411 54.347 19.4765 -0.0589426 0.0793469 -0.150445
186 1 1 20.0123 53.3823 19.2728 -0.00501705 -0.0642322 -0.0102874
187 1 1 26.6451 56.4315 25.8337 0.0727322 -0.00258658 -0.259017
188 1 1 26.825 56.6543 24.8248 -0.180855 -0.0295871 0.240156
189 1 3 25.5649 55.0888 28.1878 0.094073 0.0347564 0.0098862
190 1 1 26.149 54.7109 27.8005 -0.0467917 -0.216469 0.121081
191 1 1 26.9506 55.8163 26.2133 0.139421 0.0573202 0.0130473
192 1 1 26.7888 55.4656 26.8075 0.00735893 0.0692023 -0.0267003
193 1 3 26.6882 54.8374 27.3168 -0.116189 -0.033439 0.00633208
194 1 1 24.0695 54.639 28.9164 0.0167251 0.0300149 -0.0843346
195 1 1 23.2459 54.0143 29.094 -0.0177007 -0.0441315 -0.101806
196 1 1 24.9285 54.3917 28.6709 -0.0134888 -0.143093 -0.181777
197 1 3 22.3774 53.1508 29.051 0.0981194 -0.0662965 -0.0334716
198 1 1 21.4632 52.9569 28.8223 -0.113098 0.194346 0.0990236
199 1 1 18.6324 52.3064 26.0973 0.0748423 0.0680799 -0.0699971
200 1 1 18.5512 51.7919 25.6781 -0.00796388 0.0267354 0.0628559
201 1 3 18.3275 51.7559 24.9793 -0.00675302 0.0725597 0.102876
202 1 1 18.2601 51.5727 24.1228 0.0751696 -0.0882162 0.109445
203 1 1 18.1226 51.5401 22.9818 -0.122233 0.0665621 -0.0642696
204 1 1 18.1801 51.4764 21.9314 0.0679593 0.187481 0.0162408
205 1 3 18.5861 51.5272 20.7262 0.0957459 0.00736596 -0.131691
206 1 1 20.2846 52.2687 28.0484 -0.117471 0.0417207 0.0409491
207 1 1 21.0442 52.1471 28.4543 -0.0448301 0.0321205 -0.02742
208 1 1 19.1452 51.9548 26.7803 0.0634929 -0.0869941 -0.0479117
209 1 3 19.9211 51.7509 27.4979 0.117106 -0.0353641 0.0204775
210 1 1 26.8057 56.8054 23.7909 -0.159814 0.0838185 -0.0163373
211 1 1 26.8333 56.6442 23.0013 0.0358388 0.0373347 0.0903606
212 1 1 25.8829 56.5375 21.2929 0.0396493 -0.0296396 0.125441
213 1 3 26.584 56.4375 22.0503 -0.17572 -0.134243 0.10668
214 1 1 25.7556 55.9802 20.6388 0.0678522 -0.205837 0.125787
215 1 1 24.8684 56.0953 20.2012 -0.0392767 0.161847 -0.15995
216 1 1 18.983 51.3446 19.8128 0.0541103 -0.0554898 0.0196038
217 1 3 19.4631 51.9309 19.343 -0.0532347 0.0535364 0.0120996
218 1 1 24.6396 55.4612 19.6572 -0.171162 -0.0195542 -0.0296817
219 1 1 23.7914 55.4392 19.3295 -0.0178981 0.159761 0.0534061
220 1 1 22.7379 55.2664 19.1499 -0.00728679 -0.138331 0.0635623
221 1 3 22.0235 54.5973 18.9937 0.0591038 0.00220578 -0.000459518
222 1 1 21.3248 54.1156 18.9188 -0.0604327 0.250906 -0.134836
223 1 1 19.9599 52.6702 19.0193 -0.0481856 -0.0782188 -0.044713
224 1 1 20.634 53.4021 18.808 0.0210734 -0.0469563 -0.0765525
225 1 3 27.2551 56.0727 24.25 0.0779184 -0.0968026 -0.0427753
226 1 1 27.2966 55.7304 25.3945 -0.068126 -0.244197 0.00822158
227 1 1 25.6496 54.0762 28.3206 0.0344554 0.138866 -0.0658435
228 1 1 26.2615 53.9503 27.852 0.0683256 0.0763774 -0.0737231
229 1 3 26.7529 54.149 27.3694 0.0550565 0.0525863 -0.0908553
230 1 1 27.3886 55.0777 26.2138 0.0915609 0.127768 0.0372663
231 1 1 27.138 54.6127 26.8589 0.096453 -0.163252 -0.0426833
232 1 1 24.2823 53.7045 28.9507 0.253329 0.0288659 -0.0482515
233 1 3 23.5604 53.1591 28.9644 -0.184108 0.263421 0.0787573
234 1 1 25.0753 53.4435 28.6591 -0.0190098 0.00199376 -0.0147461
235 1 1 23.0371 52.3906 28.8306 -0.207779 0.0123487 -0.134159
236 1 1 21.9978 52.2548 28.7974 -0.136813 -0.120042 -0.0247157
237 1 3 18.9693 51.4966 26.1654 0.0578998 -0.0406759 0.0238399
238 1 1 18.8098 50.9007 25.4214 -0.0608569 -0.0548263 -0.204064
239 1 1 18.4298 50.8703 24.4776 0.0909218 -0.120291 -0.0166668
240 1 1 18.2448 50.8462 23.448 0.00958089 0.18831 0.148672
241 1 3 18.2379 50.564 22.5847 -0.0812706 0.000135925 0.0234658
242 1 1 18.3232 50.6146 21.4431 0.0710867 0.25487 -0.200927
243 1 1 18.5995 50.5717 20.3715 -0.0594418 0.145363 0.0423416
244 1 1 20.791 51.4857 27.9714 0.0711691 -0.042643 -0.142024
245 1 3 21.6877 51.4453 28.3585 0.0244496 -0.09213 -0.00530145
246 1 1 19.6739 51.0833 26.732 0.222715 0.100383 0.0523876
247 1 1 20.3914 50.9609 27.2554 0.0793915 0.0808149 0.203923
248 1 1 27.2459 56.0666 23.3989 0.102656 0.127416 0.0710111
249 1 3 27.1285 56.0133 22.7077 0.120665 0.0673442 -0.032593
250 1 1 26.4412 55.7815 21.3385 0.222337 -0.0996396 0.0927071
251 1 1 27.1109 55.5962 22.1594 -0.103716 -0.00540505 0.00830048
252 1 1 26.2631 55.2122 20.6025 0.0781161 -0.087002 -0.1411
253 1 3 25.5236 55.3806 20.0521 0.176676 -0.0180328 0.0449417
254 1 1 19.0469 50.4343 19.4825 -0.102983 0.0645081 -0.0509249
255 1 1 19.5268 51.1256 18.9649 0.179322 -0.054814 -0.0767205
256 1 1 20.0733 51.8649 18.6342 0.0848076 -0.12522 0.0119597
257 1 3 25.2121 54.7786 19.4614 0.0457767 -0.0629098 0.0218163
258 1 1 24.311 54.8307 19.1103 0.0731353 0.0673231 -0.102695
259 1 1 23.5654 54.7657 18.926 0.152713 -0.0862853 0.120383
260 1 1 22.8759 54.3174 18.7112 0.092917 0.188714 -0.0147542
261 1 3 22.2401 53.8071 18.4515 -0.107615 -0.123222 -0.0501384
262 1 1 21.4544 53.2344 18.4099 0.112155 0.031528 -0.0403833
263 1 1 20.737 52.5965 18.3879 0.000739988 0.0971857 -0.0900137
264 1 1 27.4929 55.4925 23.8133 -0.0105172 0.0825657 -0.13413
265 1 3 27.6342 55.2157 24.5435 -0.0148569 0.0395328 -0.0193988
266 1 1 27.6922 54.6763 25.4602 -0.0767249 0.102614 0.029256
267 1 1 25.7893 53.1134 28.1863 0.0992223 0.00837462 -0.0781471
268 1 1 26.614 53.3183 27.504 -0.0270293 -0.0137711 0.0401047
269 1 3 27.1191 53.7633 26.9386 0.00744354 0.133121 0.172048
270 1 1 27.5735 54.2398 26.2057 0.188063 0.127151 0.0971395
271 1 1 24.4579 52.8196 28.7002 -0.0306027 0.167514 -0.0463406
272 1 1 23.7476 52.4983 28.7211 0.0151165 0.179705 -0.0393744
273 1 3 25.072 52.621 28.4183 -0.0541093 0.0380242 0.0338616
274 1 1 23.5538 51.8005 28.4851 0.11893 0.0350983 -0.037595
275 1 1 22.6144 51.6243 28.5237 0.184195 0.0312398 0.18165
276 1 1 19.4371 50.5763 26.0801 -0.060897 -0.0160075 -0.0754264
277 1 3 19.3164 50.0611 25.5698 -0.122656 -0.187075 -0.0605775
278 1 1 18.881 50.0547 24.8535 0.222129 0.00525613 -0.0309423
279 1 1 18.4787 50.0028 23.9895 -0.0267222 -0.229116 0.0566129
280 1 1 18.3463 49.77 23.0476 -0.0742794 -0.0744379 0.0643625
281 1 3 18.35 49.8423 22.0186 0.0211276 -0.0670457 0.058883
282 1 1 18.4484 49.7836 20.9651 0.0458906 0.0318911 0.144008
283 1 1 18.7072 49.6429 19.9167 0.041606 -0.173922 0.0804579
284 1 1 21.2773 50.8361 27.7316 -0.0636317 -0.102047 0.131062
285 1 3 22.159 50.7563 28.0197 0.010178 0.203372 0.0187306
286 1 1 20.2064 50.3689 26.6621 -0.059436 0.0644434 -0.064936
287 1 1 20.9248 50.2321 27.1749 -0.157124 0.12577 -0.0168274
288 1 1 27.4293 55.1603 22.9289 0.053505 -0.0985121 -0.125049
289 1 3 26.8592 55.1191 21.4269 0.0602936 -0.10006 -0.0165122
290 1 1 27.2596 54.9342 21.9654 -0.065216 0.130971 -0.0110092
291 1 1 19.1186 49.5571 19.032 -0.0420779 0.0125054 0.0586933
292 1 1 26.7662 54.406 20.661 -0.063286 0.0999528 0.229052
293 1 3 26.0486 54.5826 19.9683 0.161963 0.260125 0.0951796
294 1 1 19.6216 50.2436 18.6093 -0.19527 -0.00860329 0.257822
295 1 1 20.1532 51.0025 18.214 0.0127059 0.266045 -0.0243284
296 1 1 20.8366 51.7338 17.9979 -0.0802698 -0.0297465 0.0634984
297 1 3 25.5914 54.0259 19.327 -0.0743716 0.138861 -0.073078
298 1 1 24.8741 54.3411 19.0107 -0.0260524 -0.00934635 0.11996
299 1 1 23.9922 54.026 18.6125 0.039053 -0.0858941 -0.0903938
300 1 1 23.1605 53.4317 18.2638 -0.113511 0.054997 0.09117
301 1 3 22.344 52.9536 17.9918 -0.0921353 0.235907 0.0901226
302 1 1 21.5768 52.3866 17.9503 -0.185118 0.10168 -0.038747
303 1 1 27.8349 53.7507 25.3803 -0.11078 -0.0654507 0.0403076
304 1 1 27.7008 54.7713 23.7888 0.149801 -0.0108948 -0.254972
305 1 3 27.854 54.3348 24.5948 0.0802422 -0.00809842 -0.240106
306 1 1 25.4203 52.1815 27.981 0.117126 -0.00401119 -0.0984319
307 1 1 26.2899 52.5613 27.6424 0.0514112 -0.0714876 -0.112669
308 1 1 27.0228 52.9092 26.9914 0.229393 0.0915282 -0.0615611
309 1 3 27.5415 53.4085 26.2595 0.142167 -0.0965684 -0.106054
310 1 1 24.5428 51.9417 28.274 -0.0138098 0.073611 0.0416922
311 1 1 23.9548 51.1723 28.1303 0.165986 0.151901 0.0344958
312 1 1 23.1653 50.9113 28.1076 0.000529307 0.0126151 -0.0575315
313 1 3 19.9231 49.6766 25.9838 0.125909 -0.0664537 0.0597802
314 1 1 19.3789 49.38 25.2057 0.133968 -0.0159035 -0.0745731
315 1 1 18.8432 49.2929 24.397 -0.0588353 -0.0956848 0.0318332
316 1 1 18.4988 49.0396 23.5074 0.0206514 -0.0509596 -0.043634
317 1 3 18.3935 48.9268 22.5588 -0.0641055 -0.119983 0.0301657
318 1 1 18.4409 48.9538 21.5003 0.0992682 0.0962421 -0.0253378
319 1 1 18.6435 48.8952 20.4264 -0.0345889 0.102729 -0.121293
320 1 1 18.8999 48.7922 19.4427 -0.032561 -0.0907166 -0.0409248
321 1 3 21.7176 50.123 27.5304 0.0672531 -0.0565299 0.0129919
322 1 1 22.4405 50.1562 27.7293 0.335075 -0.0278839 -0.0339012
323 1 1 20.6872 49.6379 26.5222 0.0745385 -0.0449678 0.0343479
324 1 1 21.334 49.7033 27.0572 0.0868158 0.154396 0.0132414
325 1 3 27.7295 54.2441 23.0371 0.0173849 -0.117226 -0.00376667
326 1 1 27.5767 54.3284 22.3563 0.151961 0.219715 0.0751104
327 1 1 27.309 54.2053 21.5072 -0.0767981 -0.110147 -0.19818
328 1 1 27.0007 53.6638 20.6589 0.0783911 -0.0279652 0.0475072
329 1 3 19.3173 48.7152 18.5069 0.0728889 -0.0951337 0.0188385
330 1 1 19.746 49.384 18.1512 -0.0755436 -0.0170959 -0.133388
331 1 1 26.4049 53.7568 19.9324 -0.129379 -0.105039 -0.0240826
332 1 1 20.3523 50.0936 17.7693 0.0626579 -0.136121 -0.0354888
333 1 3 20.8332 50.7939 17.5481 -0.148833 -0.0417921 -0.0354142
334 1 1 21.6156 51.4754 17.4812 0.00311211 0.00782375 0.0613215
335 1 1 25.9146 53.3016 19.2514 0.0298333 0.182626 0.0206925
336 1 1 25.0561 53.4579 18.7272 -0.0871245 0.122801 -0.177906
337 1 3 24.1143 53.0486 18.1634 -0.187259 -0.0830097 0.230806
338 1 1 23.3116 52.6414 17.8682 -0.0241374 -0.123517 0.114485
339 1 1 22.419 52.0948 17.5951 0.0333504 -0.00933269 0.143635
340 1 1 25.2966 51.5511 27.7201 0.040868 0.205094 0.0562142
341 1 3 27.7623 52.8144 25.5575 0.0136086 -0.0741015 -0.199728
342 1 1 27.9583 53.1804 24.7567 -0.000415423 0.0975961 0.219996
343 1 1 27.9109 53.7141 23.8021 0.0799946 -0.020102 0.0627193
344 1 1 26.0452 51.7297 27.4425 0.137897 -0.0406359 0.0842274
345 1 3 26.7641 51.9699 26.8998 -0.0139151 -0.0625202 -0.0947576
346 1 1 27.3506 52.4334 26.2931 -0.0817549 -0.1388 0.0948529
347 1 1 27.6228 51.9058 25.581 0.0384388 -0.0960851 0.0783619
348 1 1 24.5912 51.0725 27.8885 -0.010926 -0.108512 0.0339921
349 1 3 24.0546 50.481 27.7716 -0.00313723 0.120432 0.0274942
350 1 1 23.2382 49.856 27.5793 -0.135815 -0.0161993 0.0377621
351 1 1 20.5457 48.9781 26.0784 0.0321064 0.13076 0.0632341
352 1 1 20.012 48.7148 25.5808 0.104496 0.100937 0.0117711
353 1 3 19.4319 48.5284 24.8122 0.123205 -0.0976828 -0.0231739
354 1 1 18.9154 48.3503 24.0507 0.0433718 -0.14155 0.152702
355 1 1 18.6427 48.15 23.0793 -0.126629 -0.145912 -0.00747756
356 1 1 18.5698 48.1352 22.0296 -0.0599498 0.0137101 0.0862392
357 1 3 18.5149 48.0708 21.0394 -0.144803 -0.0945821 0.0659875
358 1 1 18.7554 48.0483 19.9432 0.0624474 0.0530054 0.0680612
359 1 1 19.0336 47.9002 18.9363 -0.0585162 0.056948 -0.0145586
360 1 1 22.2808 49.3153 27.1691 -0.131452 -0.0457894 -0.153264
361 1 3 21.3735 48.8925 26.5288 -0.00471019 -0.0410652 0.101285
362 1 1 27.8855 53.4978 22.8731 -0.0599848 0.180207 0.0411413
363 1 1 27.6447 53.3734 22.0742 0.0584666 -0.132837 0.145955
364 1 1 27.3891 53.1347 21.172 -0.149994 -0.020742 -0.14034
365 1 3 26.9787 53.0416 20.2855 -0.0317514 0.00705781 0.149636
366 1 1 19.4444 47.8226 17.9379 -0.0394889 -0.126903 -0.0411914
367 1 1 19.8978 48.5558 17.615 0.207878 -0.0594331 -0.0213926
368 1 1 20.5077 49.243 17.2472 0.0660739 -0.00428403 -0.0289596
369 1 3 26.5206 52.7645 19.5452 -0.171201 -0.114557 -0.111895
370 1 1 21.0486 49.9706 17.07 0.176132 0.141726 0.0590412
371 1 1 21.7445 50.594 17.0227 0.176977 0.130952 -0.0144961
372 1 1 22.5621 51.224 17.2328 0.0866025 0.0630483 -0.0505859
373 1 3 25.8323 52.6876 18.8832 -0.126182 -0.0672375 0.0495675
374 1 1 25.0398 52.5003 18.2645 0.0478079 -0.0967094 -0.0666876
375 1 1 24.2694 52.2113 17.7567 -0.0863938 -0.101035 -0.0397781
376 1 1 23.4246 51.7535 17.4636 0.0216595 -0.0464035 0.20839
377 1 3 25.5323 50.937 27.2922 -0.0447847 0.0227321 0.0150532
378 1 1 27.8911 52.2895 24.8316 9.16928e-05 0.133908 -0.0801699
379 1 1 27.9997 52.68 24.1576 -0.191048 0.0707512 0.177199
380 1 1 28.0586 52.5744 23.4023 -0.126902 0.244231 0.165788
381 1 3 26.4924 51.1013 26.8121 -0.0919687 0.0844665 0.107053
382 1 1 27.1349 51.4762 26.2894 -0.0680682 0.0569144 0.0344386
383 1 1 27.4836 51.0499 25.5545 0.0546903 0.0243206 0.0312233
384 1 1 27.7929 51.585 25.0023 0.0408348 0.0458746 -0.118019
385 1 3 24.8786 50.2289 27.3528 0.0777359 0.118439 -0.000805755
386 1 1 24.0427 49.622 27.2779 0.293476 0.0842768 -0.12782
387 1 1 23.2119 49.0287 27.1092 -0.0949091 0.03836 -0.0473131
388 1 1 20.7663 48.2831 25.8066 0.113312 0.0262043 -0.0865084
389 1 3 20.1605 47.9571 25.1553 0.123118 0.0809906 0.32377
390 1 1 19.5311 47.7189 24.4316 -0.15155 0.179624 -0.138525
391 1 1 19.0505 47.4607 23.551 0.0546835 0.00219319 0.0237237
392 1 1 18.8177 47.2935 22.5413 -0.133044 -0.0040918 -0.314982
393 1 3 18.6392 47.2966 21.5212 -0.113052 0.0681492 -0.0480374
394 1 1 18.6589 47.1873 20.586 0.0138633 -0.122378 0.0959681
395 1 1 18.8368 47.0501 19.5365 0.154138 -0.16667 -0.0249885
396 1 1 19.1518 46.9698 18.5308 -0.178927 -0.0679199 -0.26044
397 1 3 22.3741 48.4529 26.5626 -0.000335928 -0.0328509 -0.0100921
398 1 1 21.6219 47.9232 26.149 0.137395 -0.0542233 0.0630364
399 1 1 27.9272 52.5693 22.5147 0.0156035 0.0137178 -0.0439489
400 1 1 27.7479 52.4585 21.6038 0.0674181 -0.0393591 0.0853008
401 1 3 27.5165 52.3107 20.6835 -0.0270516 -0.0486791 0.0717083
402 1 1 19.5907 46.9895 17.5381 0.0357995 -0.0388259 0.0731337
403 1 1 27.0576 52.1217 19.8424 0.0790241 -0.0756993 0.0346986
404 1 1 20.1018 47.7256 17.0662 -0.0257906 0.245558 0.133353
405 1 3 20.6194 48.3521 16.7971 0.00233008 -0.0594264 -0.0979894
406 1 1 21.2081 49.089 16.6079 -0.0187105 -0.0662364 0.0401999
407 1 1 26.5021 51.9851 19.0307 0.221638 0.0912334 0.0884305
408 1 1 21.8865 49.7085 16.5457 0.0889625 -0.0802774 -0.0296809
409 1 3 22.6112 50.3391 16.7176 -0.13113 -0.000853886 0.0674001
410 1 1 23.4316 50.9288 17.0081 -0.0380786 0.170986 0.0500624
411 1 1 25.827 51.8433 18.3278 -0.050468 0.0552683 0.0102276
412 1 1 25.154 51.6183 17.8341 0.108096 -0.0749999 0.223664
413 1 3 24.3784 51.3514 17.397 0.0248009 0.258164 -0.0945018
414 1 1 26.2382 50.4241 26.7212 0.0620529 -0.0152434 -0.0564015
415 1 1 25.6484 49.8692 26.8651 -0.0250586 -0.0490177 -0.0253363
416 1 1 28.0634 51.6714 24.043 -0.00383448 0.00496243 -0.0391869
417 1 3 28.0718 51.643 23.0564 -0.0743853 0.00663786 0.0310147
418 1 1 26.9398 50.5238 26.1711 -0.0306456 0.113749 -0.103079
419 1 1 27.3966 50.3044 25.4863 0.0453741 0.0503043 0.0446709
420 1 1 27.7758 50.6565 24.6896 0.0341252 -0.101846 -0.0589562
421 1 3 24.9462 49.3438 26.9335 0.0238858 -0.112714 -0.0257172
422 1 1 24.0914 48.7016 26.8654 0.158033 0.0862279 -0.0885117
423 1 1 23.3425 48.1934 26.6704 -0.0678263 0.128716 -0.110605
424 1 1 20.9237 47.4264 25.4748 0.067912 0.0446382 -0.107354
425 1 3 20.2001 47.0783 24.8137 -0.00555943 -0.12104 0.129757
426 1 1 19.6077 46.8463 24.086 -0.0391846 0.149342 -0.0265069
427 1 1 19.1716 46.6703 23.1909 -0.19171 0.107208 -0.0891655
428 1 1 18.9389 46.4939 22.1986 -0.0421571 0.0597018 0.15603
429 1 3 19.3188 46.2186 17.9822 0.00438679 0.0139696 -0.0386761
430 1 1 18.8142 46.3733 21.2067 0.0918905 0.0200804 -0.0617586
431 1 1 18.7674 46.369 20.11 -0.0450743 0.0445468 0.0598173
432 1 1 18.9677 46.2111 19.0438 -0.0252222 0.100381 0.0311544
433 1 3 22.5212 47.5742 26.2759 0.0554584 0.0533276 -0.0961794
434 1 1 21.7109 47.0172 25.745 0.06086 -0.0298281 0.153511
435 1 1 28.0547 51.6605 22.0689 0.0150197 -0.146686 0.0416414
436 1 1 27.8772 51.5941 21.1561 -0.0460192 0.0911303 -0.0425331
437 1 3 27.5839 51.4254 20.2567 0.0255578 -0.060973 -0.159657
438 1 1 19.7436 45.9926 17.1601 -0.159872 -0.1001 0.0245486
439 1 1 20.2084 46.7918 16.7109 -0.0847779 0.0194509 0.219281
440 1 1 27.1417 51.2986 19.4635 0.0676851 0.0398214 0.113509
441 1 3 20.7437 47.3822 16.3054 0.10722 -0.0268379 -0.091288
442 1 1 21.3416 48.2207 16.1698 -0.0313409 0.0367815 -0.0777671
443 1 1 22.0911 48.8918 16.1032 0.0204594 0.167199 0.0498255
444 1 1 26.5169 51.1875 18.5673 -0.042035 0.17191 0.0647584
445 1 3 22.8222 49.5321 16.2012 0.154159 -0.0266714 0.079566
446 1 1 23.594 50.123 16.5206 -0.083537 -0.0304364 0.0530722
447 1 1 24.4017 50.4501 16.8757 0.0347436 0.0422505 -0.0810719
448 1 1 25.8988 50.9368 17.8756 -0.0561784 0.0139426 0.176287
449 1 3 25.1568 50.7399 17.3301 0.00291356 0.00400369 -0.00636932
450 1 1 26.4298 49.7376 26.3392 0.0033237 0.0309633 -0.0592543
451 1 1 25.8163 49.0357 26.4629 -0.0667545 0.0674303 0.000203603
452 1 1 28.1102 50.7311 23.6039 -0.0344598 -0.162941 0.145725
453 1 3 28.1958 50.823 22.6155 -0.0100817 0.0205654 0.188701
454 1 1 27.0531 49.5782 25.6824 -0.0675213 0.105412 0.0583157
455 1 1 27.5693 49.697 24.9183 -0.0986615 -0.0670803 -0.0992067
456 1 1 27.9565 49.8141 24.0677 -0.0440172 0.00506374 0.0302604
457 1 3 25.0158 48.4567 26.4734 0.173209 -0.166993 0.0831063
458 1 1 24.2664 47.8063 26.4816 0.0042182 -0.0938414 0.0720946
459 1 1 23.4094 47.2181 26.2865 -0.0327437 0.101569 0.0963622
460 1 1 20.9198 46.5498 25.0694 0.066417 0.0734749 0.0784801
461 1 3 20.2245 46.2114 24.4238 0.0712481 0.00905009 -0.0352945
462 1 1 19.6547 45.929 23.6097 -0.02599 0.107141 -0.0662656
463 1 1 19.3326 45.7524 22.72 0.0224117 -0.0624442 -0.148235
464 1 1 19.1008 45.6123 21.678 -0.167383 0.15837 -0.0386775
465 1 3 19.3899 45.3263 17.7033 -0.113632 -0.040346 -0.255188
466 1 1 19.0992 45.4224 18.6157 -0.0627025 0.0519811 -0.209652
467 1 1 18.9208 45.5777 20.695 -0.0818947 0.0418814 0.141377
468 1 1 18.9227 45.5626 19.7293 -0.0635138 0.0407161 -0.0830539
469 1 3 22.5629 46.6764 25.8462 -0.00410709 0.0036914 -0.098748
470 1 1 21.7569 46.1137 25.3413 -0.0102637 -0.0693431 0.0698827
471 1 1 28.183 50.7 21.6527 0.0326167 -0.088849 -0.181434
472 1 1 27.9608 50.7001 20.6937 -0.0857618 -0.0560875 0.162627
473 1 3 27.6492 50.5575 19.7479 0.075938 -0.0337074 -0.0361852
474 1 1 19.8322 45.0663 16.7249 0.1651 0.0430678 -0.0353716
475 1 1 20.2555 45.843 16.325 -0.0862518 0.00402783 0.121432
476 1 1 20.9314 46.4805 15.9339 -0.0265189 -0.0304625 -0.126318
477 1 3 27.225 50.4807 18.8994 0.0387846 0.0250666 0.0652336
478 1 1 21.4539 47.2565 15.751 0.129098 0.230626 -0.0739948
479 1 1 22.124 47.9389 15.7137 -0.0998787 -0.161233 -0.102771
480 1 1 22.9436 48.5581 15.739 -0.148019 0.0568407 -0.0388139
481 1 3 26.6717 50.2877 18.1199 -0.0195484 -0.0879326 0.101097
482 1 1 23.6607 49.1993 16.0207 0.0343069 0.0594794 -0.121842