ITEM: TIMESTEP
0
ITEM: NUMBER OF ATOMS
37074
ITEM: BOX BOUNDS pp pp pp
0 62
0 62
0 62
ITEM: ATOMS id mol type x y z vx vy vz 
1 1 3 32.3807 13.979 18.9415 0.192289 0.143727 -0.037708 
2 1 1 32.0849 13.6249 19.674 0.102039 -0.232955 -0.0255327 
3 1 1 32.0558 13.1572 18.8048 0.0808947 -0.00744724 0.240126 
4 1 1 31.6841 12.8052 19.5572 -0.0307482 -0.0911227 -0.10355 
5 1 3 32.3056 13.6466 18.0476 -0.125365 0.0642509 0.197357 
6 1 1 31.5647 12.3737 18.6119 -0.0246765 -0.0653763 -0.0595456 
7 1 1 31.0638 11.9779 19.3527 -0.106534 -0.0729726 -0.122489 
8 1 1 32.3817 14.5399 19.6144 0.00339902 -0.0444725 -0.0305822 
9 1 3 31.9806 14.2431 20.459 0.00876085 0.00688303 0.0557302 
10 1 1 31.6565 13.3623 20.4006 -0.0576103 -0.0257627 0.0170508 
11 1 1 31.2068 12.5581 20.2439 0.0213209 0.0278238 0.0690744 
12 1 1 30.5988 11.9323 20.2189 -0.0175801 0.03443 -0.0824259 
13 1 3 32.6009 14.872 18.7193 -0.0432637 -0.0974244 -0.18069 
14 1 1 32.5261 14.3376 18.2024 0.142521 0.0506863 0.0508909 
15 1 1 32.4563 14.3263 17.4595 0.0332255 0.057801 -0.0165249 
16 1 1 31.8923 12.8455 17.8737 -0.080602 -0.0882132 0.0100133 
17 1 3 32.0985 13.4701 17.1459 0.0474149 0.0249697 0.0349868 
18 1 1 30.3478 11.489 19.6392 0.0410694 -0.0945404 0.166646 
19 1 1 30.4266 11.352 18.8511 0.0722959 0.0727235 0.0457773 
20 1 1 30.9333 11.6979 18.3378 -0.0406771 -0.0955111 -0.134492 
21 1 3 31.3109 12.1157 17.6622 -0.0825331 -0.101768 0.115123 
22 1 1 32.6371 15.6179 18.7047 -0.0391748 0.0931953 -0.0656785 
23 1 1 32.4628 15.3413 19.6446 -0.100201 -0.0652907 0.0124543 
24 1 1 32.1314 15.1161 20.4732 0.133682 -0.0876602 0.027797 
25 1 3 31.7151 14.8982 21.1344 0.114459 -0.0938448 0.0706983 
26 1 1 31.4143 13.995 21.2192 -0.0177874 -0.124662 -0.0999255 
27 1 1 31.0188 13.1445 21.1453 0.0572536 -0.081862 0.147213 
28 1 1 29.8332 11.4253 20.2359 -0.176747 -0.0632958 -0.148452 
29 1 3 30.5083 12.4533 21.0523 -0.0091921 -0.0653669 0.0557158 
30 1 1 29.8669 11.8721 20.9414 -0.0957886 -0.0393687 -0.085096 
31 1 1 32.6308 15.2274 17.8062 0.11652 0.200255 0.136111 
32 1 1 32.4325 14.8456 16.9249 -0.0500075 -0.15825 0.0813096 
33 1 3 32.1674 14.1302 16.5779 -0.0321188 0.0171189 0.0125974 
34 1 1 31.57 12.6899 16.8736 -0.0138961 0.121484 -0.133582 
35 1 1 31.7583 13.4444 16.2525 -0.0619767 0.0467611 0.0341357 
36 1 1 29.7757 11.0966 19.4292 -0.0637305 -0.0736136 0.0351246 
37 1 3 29.6521 10.9015 18.5966 -0.0451602 0.142354 -0.0226555 
38 1 1 29.117 11.0166 19.9976 -0.110505 -0.177681 -0.115659 
39 1 1 30.169 11.1618 17.9623 0.104787 0.0785914 0.114932 
40 1 1 30.5494 11.4902 17.398 -0.201073 0.0140742 -0.0713567 
41 1 3 30.8893 12.0185 16.6555 0.000371118 -0.101169 0.00945311 
42 1 1 32.6137 16.1375 18.1703 -0.00777044 -0.0101441 0.0608558 
43 1 1 32.4819 16.5887 18.9759 -0.0509835 -0.112867 -0.0149229 
44 1 1 32.4037 16.2167 19.6623 -0.0218699 0.091395 -0.0134431 
45 1 3 32.2196 15.8385 20.2849 0.0580793 0.0209224 -0.0995715 
46 1 1 31.8561 15.8729 20.9568 0.0483324 -0.108493 0.142496 
47 1 1 31.3713 15.7384 21.609 -0.0558353 0.104813 0.0139625 
48 1 1 31.1125 14.7581 21.8132 0.0588472 0.105159 -0.114709 
49 1 3 30.7033 13.8031 21.8649 -0.021174 0.1052 -0.0993159 
50 1 1 30.2306 13.0417 21.7976 -0.0982431 0.116095 -0.0287732 
51 1 1 29.1497 11.4208 20.785 -0.0140792 -0.00977333 0.0114575 
52 1 1 29.6797 12.3892 21.6432 0.0132526 -0.0338399 -0.0502691 
53 1 3 29.2457 11.8571 21.3315 -0.06081 0.153306 -0.012762 
54 1 1 32.5441 16.1268 17.4272 0.0215454 -0.0221702 0.109877 
55 1 1 32.3658 17.0696 17.7154 0.17036 -0.0191945 -0.169458 
56 1 1 32.4689 15.5915 16.9115 -0.018952 0.0548835 -0.0987066 
57 1 3 32.2052 15.0313 16.2396 0.0377706 -0.0650296 -0.0367543 
58 1 1 32.2455 16.388 16.5013 0.013228 -0.0735134 0.0498163 
59 1 1 31.8034 14.2881 15.7387 -0.0249049 0.098826 -0.102525 
60 1 1 31.1459 12.7313 15.9656 -0.0643456 0.323931 -0.126969 
61 1 3 31.3245 13.6241 15.4192 0.0601114 0.0280336 -0.0687907 
62 1 1 29.5077 10.8465 17.8692 -0.0349109 -0.0981678 -0.0289759 
63 1 1 29.0179 10.7489 19.1658 -0.0286653 -0.0690314 -0.130375 
64 1 1 28.8504 10.6197 18.3021 0.110434 0.126067 -0.194075 
65 1 3 28.4274 11.1188 20.5956 0.0406443 -0.149582 0.00420783 
66 1 1 28.3416 10.7444 19.7324 0.107521 -0.128568 0.0141737 
67 1 1 29.7025 11.0279 17.2434 -0.0182826 0.0822006 0.102518 
68 1 1 30.0864 11.479 16.5005 0.321018 -0.227409 -0.0651722 
69 1 3 30.4359 12.1337 15.798 0.0204386 0.263576 -0.0838961 
70 1 1 32.4069 17.0212 18.5374 0.0314448 0.103 0.118423 
71 1 1 32.2345 17.1554 19.3882 -0.112721 0.0604001 0.0297277 
72 1 1 31.9638 16.8119 20.435 0.0310187 -0.0239864 0.0146954 
73 1 3 31.463 16.6803 21.2851 -0.0322936 -0.0329896 -0.00994168 
74 1 1 30.9302 16.4198 21.9332 0.0931675 0.0245556 0.00477409 
75 1 1 30.7006 15.5295 22.2382 0.10617 0.135929 -0.0428054 
76 1 1 30.3368 14.5685 22.3921 0.119263 0.124485 -0.0343094 
77 1 3 29.8747 13.6769 22.3735 -0.0486712 -0.0071572 0.0180895 
78 1 1 29.3662 13.0108 22.2699 -0.219023 0.03245 0.0598476 
79 1 1 28.5209 11.6264 21.3389 0.0419761 0.164114 -0.0245983 
80 1 1 28.7234 12.3345 22.0094 0.0560627 -0.0752913 -0.200231 
81 1 3 27.7174 11.3663 21.1123 0.112444 0.0208761 0.113589 
82 1 1 32.0277 17.8975 18.0319 0.138 0.0809162 -0.127722 
83 1 1 32.1913 17.0672 16.8827 0.013575 -0.0399341 0.0897851 
84 1 1 32.0465 17.6761 17.3126 -0.0304675 -0.244075 -0.135303 
85 1 3 32.1218 15.9519 16.0686 -0.00357205 -0.0110177 -0.127325 
86 1 1 31.7759 15.2612 15.4424 -0.002667 0.0836677 -0.0989847 
87 1 1 31.901 16.7972 15.9775 -0.0823958 -0.0339727 0.00595338 
88 1 1 31.2799 14.5349 14.9542 0.000977351 -0.130156 -0.0748598 
89 1 3 30.6302 12.9498 15.1439 -0.00452635 -0.181296 -0.104195 
90 1 1 30.729 13.9336 14.6389 0.0818923 -0.0942556 0.11821 
91 1 1 28.8007 10.7156 17.2519 -0.147212 -0.0060972 -0.0256258 
92 1 1 28.2101 10.5363 18.8136 -0.176399 0.096302 0.117129 
93 1 3 28.0532 10.5069 17.8711 -0.00732951 -0.117685 0.0583764 
94 1 1 27.6153 10.892 20.2605 -0.192039 0.0507375 0.0168875 
95 1 1 27.5135 10.5926 19.3333 -0.0645358 -0.198794 0.0719549 
96 1 1 29.1902 11.0928 16.4123 0.202603 -0.0148315 0.0588684 
97 1 3 29.6099 11.6587 15.6976 0.0179891 0.0084157 -0.303145 
98 1 1 29.8792 12.4658 14.9536 -0.0260867 0.170649 -0.00524455 
99 1 1 32.0172 17.848 18.8938 -0.127463 -0.153035 -0.0773983 
100 1 1 31.7493 17.8476 19.897 -0.0131677 0.0175031 0.0173198 
101 1 3 31.3702 17.6728 20.8035 -0.0369309 0.120182 0.17712 
102 1 1 30.852 17.4252 21.5896 -0.139146 0.112541 -0.0267268 
103 1 1 30.3386 16.1913 22.4305 0.0295463 0.0593284 -0.172425 
104 1 1 30.3382 16.9011 22.2448 0.129395 0.0428476 -0.105602 
105 1 3 29.8047 15.4553 22.7856 -0.122499 -0.0977138 0.0801164 
106 1 1 29.4456 14.3754 22.8078 -0.0465981 0.00217476 -0.0201047 
107 1 1 28.9623 13.6194 22.7248 0.0797562 0.12842 0.115193 
108 1 1 28.5799 13.0713 22.5543 -0.143414 -0.0243351 -0.0122208 
109 1 3 26.8672 11.1554 20.7846 0.0235849 0.122025 0.105617 
110 1 1 27.818 11.998 21.8543 -0.0684918 -0.00697994 -0.0824869 
111 1 1 27.914 12.763 22.46 0.0644524 -0.124102 0.0313254 
112 1 1 26.9362 11.7063 21.5758 0.0224356 0.0346027 0.081802 
113 1 3 31.6562 18.3214 17.3011 -0.11118 -0.160443 -0.103951 
114 1 1 31.6303 18.5163 18.2787 0.0858236 -0.0100295 -0.0717171 
115 1 1 31.6421 17.8236 16.3611 -0.0384834 0.0692739 0.0510545 
116 1 1 31.142 18.6366 16.5674 0.0194702 -0.148146 0.0389944 
117 1 3 31.6039 16.2932 15.3097 -0.109416 -0.0684776 -0.164545 
118 1 1 31.1626 15.5771 14.7042 -0.0822102 -0.0303619 -0.0350114 
119 1 1 31.3038 17.2803 15.3596 -0.216518 0.0249489 0.0178871 
120 1 1 30.6022 14.8348 14.281 -0.251117 -0.0729066 -0.0919456 
121 1 3 30.017 13.3293 14.4205 -0.107044 0.129706 0.0526837 
122 1 1 30.0759 14.3133 14.0519 0.0580298 0.0222038 0.0304795 
123 1 1 28.2339 10.876 16.3964 -0.141835 0.0140283 0.0785032 
124 1 1 27.9261 10.6305 17.0638 -0.215905 -0.00504891 -0.0417446 
125 1 3 27.4167 10.4828 18.3641 0.0670376 -0.0865749 -0.167539 
126 1 1 27.3308 10.5641 17.391 -0.0934126 0.0173993 -0.100401 
127 1 1 26.7732 10.7771 19.9328 0.0908152 0.0534578 0.0545535 
128 1 1 26.6272 10.5712 19.0456 -0.00505279 0.00179611 0.149967 
129 1 3 26.0639 10.9817 20.4322 -0.0217036 -0.0216118 -0.140688 
130 1 1 29.2724 12.8848 14.3116 -0.0715911 -0.0224461 0.267941 
131 1 1 28.6661 11.301 15.7095 -0.133813 0.059317 -0.0719278 
132 1 1 28.916 12.1098 14.7939 0.0854944 0.0843377 -0.0873178 
133 1 3 31.4596 18.5824 19.2279 0.0697661 0.0444634 0.0805045 
134 1 1 31.1884 18.4453 20.2041 -0.038525 0.117721 -0.19034 
135 1 1 30.1128 17.6135 22.0685 0.0898754 -0.0363647 0.074856 
136 1 1 30.7923 18.266 20.9928 0.046993 -0.0656153 0.104666 
137 1 3 30.237 18.1863 21.5906 -0.0218169 -0.0437801 -0.0313365 
138 1 1 29.6825 16.489 22.7289 -0.0929222 0.0687155 -0.098226 
139 1 1 29.6465 17.3323 22.4678 0.0514831 -0.00310612 -0.0567923 
140 1 1 28.9648 16.0181 23.0657 -0.0775934 0.053714 0.00705433 
141 1 3 28.845 15.0114 23.1044 0.0976861 0.0495907 0.154558 
142 1 1 28.704 14.2476 23.0026 -0.0355922 0.00886057 -0.0411126 
143 1 1 27.9986 13.6328 22.9046 0.0308967 -0.0656991 0.00473521 
144 1 1 26.1214 11.455 21.2714 -0.0272399 0.00360694 -0.105598 
145 1 3 27.1544 12.4011 22.2415 -0.0949021 -0.0258478 -0.00914036 
146 1 1 27.2989 13.0007 22.6442 0.130897 0.0411701 -0.124983 
147 1 1 26.214 12.0745 21.9993 -0.188204 -0.0322988 -0.0524005 
148 1 1 31.1622 18.9597 17.4882 0.0452202 -0.00754264 -0.0336884 
149 1 3 31.0218 19.1723 18.5036 0.034963 0.117134 -0.095573 
150 1 1 30.9119 18.1646 15.5872 0.0523085 0.0338786 -0.0501106 
151 1 1 30.6119 19.2764 16.9077 0.0867964 -0.0270034 -0.131573 
152 1 1 30.3973 18.943 15.9256 -0.104213 0.10991 0.149355 
153 1 3 30.9345 16.6043 14.6657 -0.0440551 -0.00671329 -0.091187 
154 1 1 30.441 15.8658 14.1342 0.00726017 -0.0396133 -0.0329828 
155 1 1 30.6442 17.5415 14.8304 -0.0341432 -0.0571099 0.0667598 
156 1 1 29.8158 15.1252 13.774 0.0305863 -0.139564 -0.028575 
157 1 3 29.3581 13.7438 13.9005 0.0449828 -0.0117664 0.137412 
158 1 1 29.428 14.5151 13.6952 -0.0755252 0.0307679 -0.0189931 
159 1 1 27.86 11.1222 15.8189 0.139102 -0.126888 -0.0216871 
160 1 1 27.2573 10.8347 16.4514 0.0966594 0.198234 0.201933 
161 1 3 26.5595 10.6735 17.1289 -0.231955 0.153934 0.194641 
162 1 1 26.4761 10.5415 18.0124 0.0455222 0.0991506 -0.0230466 
163 1 1 25.9155 10.7025 19.6067 -0.025176 -0.0866646 -0.0309374 
164 1 1 25.8803 10.579 18.8604 0.102894 -0.010153 -0.1606 
165 1 3 25.3043 11.2032 20.8745 0.190771 0.131908 0.125745 
166 1 1 25.4064 10.8757 20.1448 0.0692025 -0.0988181 -0.187746 
167 1 1 28.549 12.7238 14.1911 0.0575023 -0.0914514 -0.0506646 
168 1 1 28.6984 13.3962 13.8444 0.0783962 -0.0529469 -0.0200779 
169 1 3 27.928 11.5764 15.1517 -0.078394 -0.0120643 0.123948 
170 1 1 27.9251 12.2359 14.4713 0.0981694 -0.0743736 0.296756 
171 1 1 30.7563 19.198 19.524 0.00800079 0.00328247 0.112892 
172 1 1 30.4245 19.068 20.3858 -0.188983 0.0323426 -0.0321174 
173 1 3 29.5706 18.0445 22.1126 0.272562 0.00680499 -0.0328026 
174 1 1 29.9598 18.9226 21.0705 -0.0626601 -0.0509365 -0.0121551 
175 1 1 29.5843 18.5993 21.6682 -0.0717046 0.127029 0.00225181 
176 1 1 28.918 17.8298 22.4986 -0.0912841 0.132378 0.0126327 
177 1 3 28.9398 16.9651 22.868 -0.0387186 -0.187823 -0.0122263 
178 1 1 28.1662 16.5207 23.1321 -0.0165286 0.0722005 -0.00994115 
179 1 1 28.1264 15.549 23.2475 -0.0574937 -0.181707 0.0126934 
180 1 1 28.0704 14.5733 23.1701 -0.00728433 -0.0598861 0.0983583 
181 1 3 27.304 14.2804 23.169 0.137441 -0.00412577 -0.0335097 
182 1 1 27.005 13.6819 22.9966 -0.253977 -0.0449555 -0.0292298 
183 1 1 25.3084 11.7735 21.7107 -0.0626891 0.0190488 0.120401 
184 1 1 24.6228 11.3896 21.1989 0.118068 0.0674625 0.0704293 
185 1 3 26.3908 12.8948 22.6378 0.0628854 -0.0682792 -0.0444954 
186 1 1 25.5659 12.3759 22.3044 -0.0193027 0.153282 -0.174042 
187 1 1 30.4953 19.5708 17.8192 0.0457427 -0.0697913 0.0193048 
188 1 1 30.2677 19.7096 18.8153 -0.0222862 -0.0337455 -0.216225 
189 1 3 30.23 18.3397 15.0769 -0.0278711 -0.00113603 -0.144174 
190 1 1 29.6752 18.9139 15.2498 0.216131 -0.107874 -0.112592 
191 1 1 30.0404 19.7452 17.2165 0.0495168 -0.00125651 -0.0908862 
192 1 1 29.9429 19.5717 16.5346 0.0137505 0.026823 0.0780018 
193 1 3 29.6097 19.3828 15.8329 -0.0354918 -0.0202896 -0.102191 
194 1 1 30.1385 16.8718 14.1585 -0.0977397 -0.17341 0.0390407 
195 1 1 29.5892 16.1494 13.7068 -0.00816061 0.0714979 -0.0852503 
196 1 1 29.7826 17.7143 14.3357 0.0146039 -0.05367 -0.146974 
197 1 3 28.9174 15.2813 13.4366 -0.0368937 0.105876 -0.173597 
198 1 1 28.6813 14.2869 13.5233 -0.103924 0.147512 0.0900108 
199 1 1 27.1986 11.2845 15.5826 -0.225366 0.0106608 0.103914 
200 1 1 26.5731 11.1895 15.8482 0.134611 -0.0618568 -0.0320229 
201 1 3 26.2621 10.8844 16.5441 -0.0314684 -0.0436455 0.00831189 
202 1 1 25.7943 10.6933 17.2784 -0.0147847 -0.0992012 0.00941046 
203 1 1 25.3299 10.5937 18.1798 0.221812 -0.00760646 -0.0757958 
204 1 1 24.9631 10.6621 19.2484 -0.0289714 0.0639058 -0.00809557 
205 1 3 24.4549 10.9492 20.305 0.16933 0.0868169 0.0883982 
206 1 1 27.8899 13.0027 13.9306 0.00707011 0.070945 -0.118881 
207 1 1 27.8842 13.8555 13.5462 0.11363 -0.051803 -0.0143166 
208 1 1 27.1564 11.8942 14.8174 -0.0600624 0.0107119 -0.0867171 
209 1 3 27.1353 12.6439 14.1835 -0.0929211 0.0119695 0.145831 
210 1 1 29.9352 19.6692 19.773 0.0746404 0.0116429 0.00389208 
211 1 1 29.5249 19.5476 20.4974 0.0030668 0.137327 -0.0698119 
212 1 1 28.9145 18.5777 21.9861 -0.0243481 0.0154869 -0.190176 
213 1 3 28.9823 19.2607 21.2594 0.0681735 -0.00579752 0.126176 
214 1 1 28.1834 18.3109 22.3561 -0.156417 0.00221041 0.109971 
215 1 1 28.1843 17.4545 22.8315 -0.0232061 -0.0674449 -0.0969749 
216 1 1 23.8575 11.3181 21.089 0.169839 0.0494198 -0.0788966 
217 1 3 24.2636 11.8176 21.7996 0.0360116 -0.0595193 0.164699 
218 1 1 27.3827 17.0911 23.0609 -0.0953825 -0.059208 -0.0643139 
219 1 1 27.3031 16.1979 23.2774 0.150145 -0.0875126 -0.150318 
220 1 1 27.2023 15.1598 23.3204 -0.0738558 -0.150677 0.0261925 
221 1 3 26.5388 14.3957 23.2585 -0.31594 0.234294 0.139123 
222 1 1 26.01 13.732 23.0891 0.0512832 -0.0637414 0.0291072 
223 1 1 24.8091 12.3509 22.321 -0.0323257 -0.0183101 0.167687 
224 1 1 25.3112 13.0179 22.7804 -0.166086 -0.127714 0.0701835 
225 1 3 29.389 20.0863 19.1503 -0.140529 0.214362 0.0615008 
226 1 1 29.5947 20.0806 18.0303 0.175929 -0.0967634 0.113069 
227 1 1 29.2963 18.4078 14.5657 0.155096 0.0145608 0.0698843 
228 1 1 28.9714 18.9672 14.9391 -0.0943013 0.181009 0.107044 
229 1 3 29.0052 19.4073 15.4875 0.017554 -0.0122832 -0.000142693 
230 1 1 29.3152 20.0223 17.0078 0.000730178 0.0967888 -0.0148513 
231 1 1 29.1679 19.7696 16.1968 0.021755 0.159373 0.0104106 
232 1 1 29.2476 17.0851 13.8107 0.0769094 -0.00944182 0.197938 
233 1 3 28.6722 16.4351 13.4705 -0.0690732 -0.0792639 -0.105526 
234 1 1 28.8338 17.8003 14.0027 -0.0137337 0.172583 -0.027965 
235 1 1 27.9722 15.8668 13.2977 -0.0568069 -0.169639 0.0157216 
236 1 1 27.9799 14.8243 13.3246 0.0424347 0.0947209 -0.0754119 
237 1 3 26.4609 11.6069 15.2518 -0.0833103 0.059655 0.111513 
238 1 1 25.6722 11.3248 15.7828 -0.00301219 0.0805056 -0.0540447 
239 1 1 25.2678 10.9336 16.6369 0.0341367 0.158263 0.111299 
240 1 1 24.8005 10.7129 17.5105 0.0335634 -0.125434 -0.00767206 
241 1 3 24.3464 10.637 18.4175 -0.0401021 0.0821048 -0.0596003 
242 1 1 23.8921 10.72 19.3747 -0.0628798 0.0397136 0.0514519 
243 1 1 23.4239 10.9616 20.2927 -0.033288 -0.0344097 0.0217774 
244 1 1 27.1322 13.5007 13.7077 0.0453735 0.138627 0.0137161 
245 1 3 27.1518 14.433 13.4077 -0.0373786 0.0256112 0.0906771 
246 1 1 26.3121 12.2951 14.5608 -0.119385 -0.104849 -0.0446165 
247 1 1 26.3292 13.0869 14.007 0.308838 0.014263 -0.0197919 
248 1 1 29.0246 19.98 19.964 -0.131486 0.0419378 -0.129825 
249 1 3 28.7281 19.7936 20.5572 -0.0608704 -0.0547729 0.165405 
250 1 1 28.1621 19.0592 21.7229 0.0688918 0.132266 0.000451545 
251 1 1 28.1213 19.6687 20.9577 -0.142611 -0.0664504 0.15928 
252 1 1 27.3431 18.7445 22.1344 0.160768 -0.0287897 -0.0407018 
253 1 3 27.385 17.9483 22.6816 0.0963006 0.113233 0.150159 
254 1 1 22.8965 11.3417 21.1323 0.00287889 0.0425073 0.0831919 
255 1 1 23.3663 11.8035 21.8121 -0.0663408 -0.102047 0.0641179 
256 1 1 23.8526 12.4059 22.4171 -0.0306062 0.209395 0.149539 
257 1 3 26.6309 17.5605 22.9645 0.0546769 0.135769 0.0443813 
258 1 1 26.558 16.7291 23.2529 0.23937 0.0235293 0.0174617 
259 1 1 26.5708 15.9815 23.3735 -0.0101178 -0.0193748 0.054298 
260 1 1 26.0553 15.2761 23.4297 -0.100394 0.164653 0.0468304 
261 1 3 25.5427 14.5848 23.3821 0.0226149 -0.00344071 -0.0100136 
262 1 1 25.0158 13.7837 23.1816 0.00720753 -0.00420608 0.174223 
263 1 1 24.4082 13.08 22.8755 -0.0633404 0.135446 0.138692 
264 1 1 28.6682 20.2472 19.3802 0.0132755 0.092608 -0.0577315 
265 1 3 28.6974 20.3564 18.6 0.0381301 -0.0162378 0.0335237 
266 1 1 28.6534 20.3287 17.5942 0.122961 0.0469262 0.0389905 
267 1 1 28.285 18.5243 14.3566 0.0122632 -0.0332428 -0.138252 
268 1 1 28.2684 19.263 15.062 0.150114 0.0945916 -0.0858037 
269 1 3 28.3886 19.7605 15.7985 -0.138598 -0.0415088 0.0956034 
270 1 1 28.5152 20.1293 16.6553 -0.219295 -0.147974 -0.0369507 
271 1 1 28.2945 17.2374 13.6356 0.043766 -0.0784074 0.0180351 
272 1 1 27.9302 16.6362 13.4174 -0.0792538 0.201816 0.00652871 
273 1 3 28.004 17.819 13.8681 -0.0470509 -0.00262596 0.0118189 
274 1 1 27.2463 16.3809 13.3733 -0.0279965 0.0691314 -0.102585 
275 1 1 27.191 15.406 13.2949 0.136635 0.137484 -0.166167 
276 1 1 25.5526 11.9796 14.9632 0.125305 0.0434436 -0.0281792 
277 1 3 24.8816 11.7698 15.2948 -0.033912 -0.0244655 -0.174862 
278 1 1 24.589 11.3381 15.9491 -0.0557564 -0.0122572 0.091985 
279 1 1 24.2732 10.9846 16.7294 0.0546011 0.029698 -0.0311168 
280 1 1 23.8401 10.7603 17.6018 0.0149561 -0.200578 0.0887912 
281 1 3 23.4161 10.6844 18.5044 -0.133631 -0.0680911 -0.171358 
282 1 1 22.9529 10.7658 19.455 -0.155599 -0.160521 0.225851 
283 1 1 22.426 11.0073 20.3725 -0.0613504 0.216051 0.108446 
284 1 1 26.3411 13.9435 13.6269 -0.0232382 0.0132631 -0.0707538 
285 1 3 26.3149 14.8428 13.4221 -0.026938 -0.128692 0.062446 
286 1 1 25.5369 12.7118 14.341 -0.0212424 0.0794999 -0.0565878 
287 1 1 25.5768 13.5515 13.864 -0.141747 0.131877 0.082943 
288 1 1 28.0643 20.1177 20.0886 -0.0568034 0.0313196 -0.106562 
289 1 3 27.4306 19.4191 21.4211 0.015319 0.150919 -0.0677764 
290 1 1 27.4708 19.8281 20.8098 0.040761 -0.18029 -0.0554657 
291 1 1 21.9099 11.3864 21.2169 0.0335269 0.0928158 -0.135869 
292 1 1 26.5574 19.1361 21.877 0.060462 -0.00953785 0.0693994 
293 1 3 26.5855 18.4038 22.4966 -0.0276242 -0.0315964 -0.100076 
294 1 1 22.3947 11.8396 21.8864 -0.0494962 -0.0506335 -0.0529399 
295 1 1 22.9096 12.4313 22.4857 0.123919 0.0378604 -0.00340864 
296 1 1 23.4511 13.0848 22.9373 -0.0182628 -0.198251 0.210335 
297 1 3 25.8291 17.9706 22.8583 -0.0783046 -0.119658 -0.0839937 
298 1 1 26.0079 17.245 23.1597 -0.143044 -0.081003 -0.0784112 
299 1 1 25.6375 16.3293 23.4236 0.22487 -0.105723 0.0799217 
300 1 1 25.0676 15.473 23.5279 0.11229 0.115716 0.257246 
301 1 3 24.5827 14.6361 23.4712 -0.00281751 0.175065 -0.0241951 
302 1 1 24.0229 13.8337 23.2743 -0.0426466 0.11202 -0.19543 
303 1 1 27.805 20.3584 17.2077 0.0333015 0.0408828 0.00219219 
304 1 1 27.9899 20.3877 19.1493 -0.0592441 0.0609689 -0.0241901 
305 1 3 27.9037 20.4687 18.1764 -0.0149193 0.0138854 0.0541348 
306 1 1 27.4048 18.1914 14.0808 0.216427 -0.0443103 -0.137954 
307 1 1 27.5007 18.9576 14.6849 -0.128571 -0.0317318 0.130653 
308 1 1 27.6012 19.5886 15.4279 0.153618 -0.0154293 -0.11445 
309 1 3 27.7034 20.0613 16.2807 -0.170718 0.0730171 -0.155414 
310 1 1 27.3198 17.3215 13.6384 -0.0529339 0.144257 -0.0811644 
311 1 1 26.5263 16.7482 13.5135 0.122972 -0.0203572 -0.0597173 
312 1 1 26.3116 15.8858 13.3902 -0.0103522 0.0729593 -0.00467996 
313 1 3 24.685 12.3921 14.6988 0.0572332 0.0941658 0.0412694 
314 1 1 24.1291 11.8611 15.301 0.111661 -0.0982319 0.0265133 
315 1 1 23.6845 11.373 16.0501 -0.118579 0.0593271 0.0739329 
316 1 1 23.2785 11.0336 16.8223 -0.0211042 -0.0923704 0.101505 
317 1 3 22.8461 10.8105 17.6943 -0.0324092 0.144905 0.0257577 
318 1 1 22.4235 10.7347 18.5969 0.0528238 0.00980762 -0.128576 
319 1 1 21.9308 10.8212 19.5738 -0.144068 -0.0370349 -0.131598 
320 1 1 21.4262 11.0592 20.469 0.0171053 0.259804 -0.123513 
321 1 3 25.5358 14.3882 13.5871 0.0222513 0.016148 0.0212757 
322 1 1 25.6024 15.1314 13.4599 0.125805 -0.169219 -0.21818 
323 1 1 24.7737 13.2212 14.1212 -0.0121284 -0.165425 0.113031 
324 1 1 24.9626 13.9296 13.785 0.086337 0.155716 0.112484 
325 1 3 27.2726 20.3538 19.5483 0.0279958 -0.0784655 0.0205949 
326 1 1 27.0688 20.1683 20.1799 0.0917711 0.0899575 0.0868232 
327 1 1 26.5886 19.7824 21.0428 0.0868112 0.219948 -0.0553657 
328 1 1 25.8602 19.4133 21.6725 0.108196 0.0752403 -0.0285334 
329 1 3 20.9279 11.4287 21.294 0.16209 0.0544635 0.0932111 
330 1 1 21.4032 11.8874 21.9774 -0.0823726 -0.119002 0.123034 
331 1 1 25.7165 18.8087 22.3005 0.0950468 0.00352882 -0.0347493 
332 1 1 21.9165 12.4811 22.5787 0.0174193 -0.262322 -0.0594729 
333 1 3 22.457 13.1367 23.0302 0.00804628 0.116723 0.0445554 
334 1 1 23.0284 13.8836 23.3666 -0.00778851 0.077262 0.161503 
335 1 1 25.1153 18.2673 22.7726 0.222065 0.0473815 -0.031998 
336 1 1 25.0496 17.3644 23.2229 -0.119375 -0.132938 0.054655 
337 1 3 24.5656 16.4108 23.5208 -0.0329565 -0.0712297 0.13155 
338 1 1 24.1389 15.5182 23.6159 -0.1642 -0.0185553 0.106329 
339 1 1 23.589 14.6856 23.5646 -0.0115608 -0.0543272 0.0822843 
340 1 1 26.7445 18.0159 14.0157 -0.060383 0.0776561 0.0474015 
341 1 3 26.951 20.2546 16.7557 -0.134386 0.0691607 0.0679185 
342 1 1 26.9944 20.4666 17.6525 -0.0148076 0.137831 -0.162434 
343 1 1 27.0423 20.5028 18.6939 -0.0503016 0.0753103 -0.0824852 
344 1 1 26.7382 18.6234 14.4318 0.112872 -0.05234 0.0320263 
345 1 3 26.718 19.3303 15.1183 -0.00594714 0.066451 -0.166252 
346 1 1 26.8497 19.8775 15.9035 -0.0258489 -0.0778896 -0.0340815 
347 1 1 26.1458 20.1279 16.3978 -0.17417 -0.158732 0.142492 
348 1 1 26.3248 17.3707 13.7313 0.00424805 -0.0595424 -0.0548706 
349 1 3 25.7495 16.7092 13.566 -0.0595005 0.102472 -0.155785 
350 1 1 25.1573 15.8844 13.4939 0.154997 0.142282 0.00618552 
351 1 1 24.062 12.9972 14.3384 0.0958932 -0.0612596 0.101756 
352 1 1 23.6409 12.4544 14.7862 0.0842238 0.0614761 -0.0116905 
353 1 3 23.1713 11.9041 15.3962 0.0373491 -0.0543444 0.0624715 
354 1 1 22.7301 11.4467 16.098 -0.00336278 -0.0395769 -0.108869 
355 1 1 22.2849 11.085 16.9146 0.0848267 0.126839 -0.0339303 
356 1 1 21.8515 10.8616 17.7879 0.0759325 0.00468947 -0.022544 
357 1 3 21.4292 10.7849 18.6901 -0.0494198 0.127909 0.0425858 
358 1 1 20.9379 10.8711 19.6644 0.0650564 -0.126556 0.0599919 
359 1 1 20.409 11.1087 20.5589 0.152143 -0.0615291 -0.148982 
360 1 1 24.6446 14.8788 13.5841 0.0125691 -0.00998339 -0.230548 
361 1 3 24.0039 13.9054 13.9011 -0.0402528 0.0141401 -0.0749039 
362 1 1 26.4954 20.413 19.5421 0.000633033 0.0700055 -0.206428 
363 1 1 26.0738 20.2205 20.2723 -0.0621284 0.0549969 0.0328344 
364 1 1 25.4979 19.8793 21.0776 0.0462258 -0.049415 0.00377461 
365 1 3 25.1134 19.3983 21.8047 0.0959545 -0.00821733 0.151544 
366 1 1 19.9163 11.492 21.4131 0.0634671 0.049592 -0.0434679 
367 1 1 20.4054 11.9296 22.0601 0.148412 -0.0186178 -0.00568999 
368 1 1 20.9171 12.5278 22.6689 0.0147582 0.0543311 -0.027546 
369 1 3 24.6715 18.852 22.4058 0.0514324 -0.00111038 -0.0374749 
370 1 1 21.463 13.1854 23.1228 0.21704 -0.174559 -0.157057 
371 1 1 22.0329 13.9341 23.4595 0.0813976 -0.022957 -0.0999274 
372 1 1 22.5949 14.7353 23.6575 -0.0774636 0.154905 0.0687549 
373 1 3 24.3728 18.1224 22.9485 -0.101123 -0.0141636 -0.102687 
374 1 1 24.0302 17.3071 23.3567 0.051367 -0.0802573 0.0412093 
375 1 1 23.6273 16.4475 23.6109 -0.0375869 -0.0650046 -0.0118671 
376 1 1 23.1436 15.5683 23.7087 0.00361808 0.224496 -0.0226076 
377 1 3 25.8681 18.211 14.1896 -0.0234909 0.131442 0.0382165 
378 1 1 26.1813 20.4129 17.2337 0.0812675 -0.0498171 0.0864142 
379 1 1 26.2981 20.5326 17.9728 -0.0139842 -0.0252709 0.00462548 
380 1 1 25.8841 20.5657 18.7434 0.0861626 0.0864573 0.0457711 
381 1 3 25.8963 19.0408 14.8406 -0.157952 0.186467 0.160019 
382 1 1 26.0016 19.6596 15.5659 0.0155517 0.0581567 -0.0222129 
383 1 1 25.3007 19.9885 16.105 0.0163661 0.0134092 0.202954 
384 1 1 25.5669 20.2971 16.8003 0.00755081 0.0561325 0.000220361 
385 1 3 25.3302 17.42 13.8239 -0.0591726 0.0129752 0.0398809 
386 1 1 24.7347 16.6225 13.6294 0.0405954 0.00788257 -0.0360875 
387 1 1 24.1517 15.7886 13.5801 -0.0969125 -0.140871 -0.0380925 
388 1 1 23.3168 13.2149 14.3004 -0.0875439 -0.0979167 -0.168625 
389 1 3 22.7506 12.5699 14.8107 -0.0779403 0.0624137 0.0964871 
390 1 1 22.2309 11.9702 15.4639 -0.00950462 -0.0129787 -0.0740648 
391 1 1 21.7349 11.4975 16.191 -0.0605043 -0.00895576 -0.0790253 
392 1 1 21.2901 11.1352 17.0085 -0.00371508 0.122651 0.221638 
393 1 3 20.8574 10.9125 17.8802 0.153528 -0.079321 0.135202 
394 1 1 20.4351 10.8353 18.7832 0.0602014 -0.0838175 0.0796472 
395 1 1 19.9294 10.9201 19.753 0.17119 0.00940797 0.05769 
396 1 1 19.4227 11.1541 20.6395 -0.282049 -0.186913 -0.145747 
397 1 3 23.5704 14.9051 13.6882 -0.143943 0.0860224 -0.121278 
398 1 1 22.9863 14.0651 13.9561 -0.0147375 -0.0219136 -0.156227 
399 1 1 25.4775 20.4937 19.4984 0.110853 0.00105137 0.00197463 
400 1 1 25.0793 20.2695 20.3673 0.13786 -0.0128914 0.0561219 
401 1 3 24.591 19.9352 21.1466 -0.0672574 -0.0454487 -0.0381869 
402 1 1 18.9364 11.5169 21.4574 -0.0970186 -0.0915947 -0.00553432 
403 1 1 24.155 19.4524 21.8874 -0.00941566 -0.053934 -0.0348748 
404 1 1 19.4007 11.9913 22.1667 0.165057 0.0860525 -0.12529 
405 1 3 19.9118 12.5661 22.7505 -0.157759 0.0515017 0.120946 
406 1 1 20.4684 13.2367 23.216 -0.138747 0.189657 -0.00304451 
407 1 1 23.7845 18.825 22.5461 0.0053475 0.0970491 0.0539956 
408 1 1 21.0397 13.983 23.5522 0.0402425 -0.035869 -0.114292 
409 1 3 21.5999 14.7856 23.751 -0.0613087 -0.0339176 -0.0189657 
410 1 1 22.1499 15.6183 23.8029 -0.0258948 0.129232 -0.0662291 
411 1 1 23.4175 18.1233 23.0636 0.0391671 0.110774 -0.0431325 
412 1 1 23.0322 17.3418 23.4544 0.0309581 0.170961 -0.0934252 
413 1 3 22.6026 16.5245 23.7018 0.0190453 -0.100675 0.125033 
414 1 1 25.1747 18.8076 14.6629 -0.104601 0.201087 -0.13284 
415 1 1 24.7735 18.1995 14.2488 -0.013092 -0.162703 0.0806677 
416 1 1 25.3221 20.5457 17.7609 0.0694705 0.128132 0.0232984 
417 1 3 24.8746 20.6229 18.69 0.0406429 0.0333934 0.0542046 
418 1 1 25.0933 19.4275 15.2863 0.014559 -0.112158 0.0780025 
419 1 1 24.5556 19.8743 15.9129 -0.0123678 0.0655619 0.0531766 
420 1 1 24.6012 20.3202 16.8176 -0.0862862 0.0437329 0.0946496 
421 1 3 24.3347 17.471 13.9156 0.0380817 0.0751407 -0.016311 
422 1 1 23.7726 16.6694 13.7181 -0.156893 -0.140425 0.11674 
423 1 1 23.2226 15.8356 13.6666 0.123348 -0.0440835 -0.0174054 
424 1 1 22.3617 13.3094 14.3637 0.0631626 0.0766951 -0.0764003 
425 1 3 21.7803 12.6341 14.8889 0.0434545 -0.0410576 0.002196 
426 1 1 21.2359 12.0206 15.5566 0.0690726 -0.0369387 -0.0329012 
427 1 1 20.7403 11.5478 16.2844 -0.0790767 -0.0144342 -0.00505436 
428 1 1 20.296 11.1863 17.1013 -0.0879316 -0.00948655 -0.0231209 
429 1 3 18.4475 11.2025 20.7227 0.187165 0.0540905 -0.0184125 
430 1 1 19.864 10.9634 17.9747 -0.170744 0.00104849 -0.0724516 
431 1 1 19.4408 10.8856 18.8765 -0.00142641 -0.158456 -0.125959 
432 1 1 18.9435 10.9699 19.8398 0.0220226 0.0947303 0.0788539 
433 1 3 22.6318 14.9628 13.7742 0.0824091 -0.0911739 0.121431 
434 1 1 21.9894 14.1293 14.0444 -0.0628179 0.168923 0.0149051 
435 1 1 24.5172 20.5422 19.5866 -0.0676793 0.0168241 -0.137109 
436 1 1 24.0855 20.3197 20.4592 -0.0881227 -0.0367559 -0.0222062 
437 1 3 23.6395 19.9587 21.2768 0.0398353 -0.00920736 -0.0365802 
438 1 1 17.9278 11.5626 21.5391 0.029893 0.0276522 -0.0158097 
439 1 1 18.4113 12.0315 22.2458 0.0069139 -0.0218823 0.0201847 
440 1 1 23.2154 19.48 21.9975 -0.148949 0.0622894 0.112322 
441 1 3 18.9211 12.6266 22.8517 0.0871308 0.0597421 -0.141327 
442 1 1 19.4735 13.2874 23.3087 0.154612 -0.100814 0.0902153 
443 1 1 20.0452 14.0344 23.6447 -0.187792 -0.0695679 0.0189233 
444 1 1 22.8151 18.8571 22.6506 0.0074146 0.0863846 0.0613947 
445 1 3 20.6059 14.8363 23.8446 0.111365 -0.0688038 0.00225703 
446 1 1 21.1565 15.6699 23.8955 -0.166572 -0.0487896 0.00551997 
447 1 1 21.6096 16.5717 23.7952 0.0324389 0.0189187 0.0514986 
448 1 1 22.4319 18.1638 23.1617 0.0464419 -0.1743 -0.0378784 
449 1 3 22.0311 17.3953 23.5472 0.0499201 0.053068 0.0405902 
450 1 1 24.435 18.9082 14.7855 0.0964596 0.023671 -0.0925813 
451 1 1 23.8665 18.229 14.3236 0.0634568 0.121609 -0.0357047 
452 1 1 24.2461 20.5958 17.8329 0.212424 0.134277 0.312692 
453 1 3 23.9457 20.6695 18.7776 -0.0356128 0.0319764 0.0327799 
454 1 1 24.0515 19.4892 15.3932 0.0652632 0.111546 -0.0472507 
455 1 1 23.8336 20.0201 16.1627 0.0124271 0.0615489 0.0161295 
456 1 1 23.5933 20.4119 17.022 0.0960384 0.0643051 -0.119315 
457 1 3 23.3404 17.522 14.0085 0.0805007 -0.105525 0.127169 
458 1 1 22.7786 16.7192 13.8109 0.0312429 0.053943 0.0345298 
459 1 1 22.2286 15.8869 13.7589 -0.0792819 0.0389236 0.00449678 
460 1 1 21.3762 13.3667 14.4515 -0.111998 -0.162043 0.050095 
461 1 3 20.7881 12.6872 14.98 0.0968848 0.0685316 0.0476661 
462 1 1 20.2374 12.0744 15.6454 -0.0327594 0.00703254 -0.0776831 
463 1 1 19.7457 11.5994 16.3762 -0.0756694 0.0368976 0.16543 
464 1 1 19.3031 11.2375 17.1946 0.114858 0.0314721 0.0103832 
465 1 3 17.4432 11.2553 20.8203 0.0197906 0.00922845 -0.0388058 
466 1 1 17.9465 11.0225 19.939 0.146744 -0.104679 -0.241152 
467 1 1 18.8699 11.0139 18.0671 -0.110571 0.101477 0.0964165 
468 1 1 18.4468 10.9366 18.9683 -0.0524476 -0.101614 0.0131413 
469 1 3 21.6069 14.9893 13.874 -0.0574578 -0.206021 -0.00642032 
470 1 1 20.9892 14.1771 14.1394 0.113276 -0.0454454 0.245394 
471 1 1 23.5238 20.5928 19.6804 0.0237008 0.0306923 0.061 
472 1 1 23.0897 20.37 20.5521 -0.0517639 -0.141465 -0.0747859 
473 1 3 22.6441 20.0076 21.3702 0.189389 0.00447206 -0.110279 
474 1 1 16.9359 11.6189 21.6432 -0.0529208 -0.164704 0.00517497 