ITEM: TIMESTEP
100000000
ITEM: NUMBER OF ATOMS
94148
ITEM: BOX BOUNDS pp pp pp
0 62
0 62
0 62
ITEM: ATOMS id mol type x y z 
1 1 1 5.16064 0.370589 8.08771 
2 1 1 5.68636 0.0696696 8.65191 
3 1 1 6.02199 0.220666 7.70649 
4 1 1 6.48011 61.8164 8.34525 
5 1 1 5.42204 0.504699 7.09292 
6 1 1 6.78376 0.0381823 7.34988 
7 1 1 7.30855 61.4629 7.97723 
8 1 1 4.76008 0.201135 8.86571 
9 1 1 5.26344 61.7277 9.49893 
10 1 1 6.11547 61.6013 9.25068 
11 1 1 6.92267 61.2811 8.93339 
12 1 1 7.63071 60.8288 8.74584 
13 1 1 4.2104 0.51008 8.06059 
14 1 1 4.68096 0.614356 7.45319 
15 1 1 4.67436 0.68031 6.6905 
16 1 1 6.26609 0.381874 6.72438 
17 1 1 5.43867 0.589899 6.10529 
18 1 1 7.99331 60.8568 8.03998 
19 1 1 7.99389 61.099 7.24443 
20 1 1 7.46907 61.6133 6.9656 
21 1 1 7.02976 0.0483903 6.31663 
22 1 1 3.44306 0.487971 8.09859 
23 1 1 3.86182 0.188183 8.99345 
24 1 1 4.35967 61.7561 9.67576 
25 1 1 4.73165 61.2747 10.2049 
26 1 1 5.73566 61.1456 10.1363 
27 1 1 6.64295 60.8634 9.87611 
28 1 1 8.29786 60.2984 8.51916 
29 1 1 7.3087 60.5146 9.58595 
30 1 1 7.97019 60.023 9.28215 
31 1 1 3.70983 0.611198 7.17496 
32 1 1 4.00454 0.686932 6.23957 
33 1 1 4.66931 0.654621 5.68322 
34 1 1 6.27049 0.2829 5.71344 
35 1 1 5.40084 0.457052 5.15616 
36 1 1 8.49252 60.3624 7.65294 
37 1 1 8.56156 60.4702 6.81141 
38 1 1 8.80042 59.6586 8.07203 
39 1 1 8.09645 61.0753 6.30792 
40 1 1 7.64674 61.4975 5.8196 
41 1 1 6.95267 61.852 5.22484 
42 1 1 2.7297 0.452832 7.67215 
43 1 1 2.58226 0.235424 8.50039 
44 1 1 3.04495 0.0421535 9.11824 
45 1 1 3.56955 61.7954 9.65816 
46 1 1 3.71045 61.2899 10.2177 
47 1 1 4.0202 60.69 10.6885 
48 1 1 5.04047 60.6253 10.6663 
49 1 1 6.0822 60.3917 10.5708 
50 1 1 6.90574 60.0523 10.344 
51 1 1 8.53615 59.4706 8.84251 
52 1 1 7.56628 59.6699 10.0452 
53 1 1 8.13154 59.3129 9.52042 
54 1 1 2.75542 0.487211 6.87713 
55 1 1 1.85057 0.182798 7.28755 
56 1 1 3.26956 0.527722 6.17478 
57 1 1 3.79287 0.574934 5.43754 
58 1 1 2.52727 0.31809 6.0048 
59 1 1 4.48048 0.457898 4.7982 
60 1 1 6.1658 0.0880416 4.65662 
61 1 1 5.13297 0.133746 4.24084 
62 1 1 8.57806 60.544 5.98846 
63 1 1 8.95096 59.7773 7.18715 
64 1 1 8.98744 59.8435 6.30608 
65 1 1 8.95993 58.7832 8.52545 
66 1 1 9.20191 59.0029 7.56997 
67 1 1 8.25302 60.832 5.37149 
68 1 1 7.60889 61.2322 4.84327 
69 1 1 6.81491 61.4892 4.24121 
70 1 1 1.94951 0.113505 8.13956 
71 1 1 2.08032 61.7677 8.918 
72 1 1 2.63651 61.3363 9.81123 
73 1 1 3.01907 60.6705 10.5034 
74 1 1 3.46731 60.0754 10.9726 
75 1 1 4.49214 59.9703 11.0357 
76 1 1 5.45524 59.724 10.9972 
77 1 1 6.37726 59.4587 10.8653 
78 1 1 7.12839 59.0693 10.5832 
79 1 1 8.51607 58.698 9.27664 
80 1 1 7.95341 58.6057 10.1068 
81 1 1 8.93061 57.9507 9.01005 
82 1 1 1.11707 61.5877 7.62215 
83 1 1 1.80995 0.0926457 6.39921 
84 1 1 1.25593 61.7689 6.84722 
85 1 1 2.88392 0.283751 5.34393 
86 1 1 3.5115 0.247263 4.61835 
87 1 1 1.99757 61.9291 5.4462 
88 1 1 4.14159 62.0155 3.99886 
89 1 1 5.91167 61.6739 3.83019 
90 1 1 4.81138 61.6116 3.49376 
91 1 1 8.73177 59.9373 5.26981 
92 1 1 9.26576 59.0981 6.69503 
93 1 1 9.15822 59.1574 5.75285 
94 1 1 9.29715 58.105 8.01034 
95 1 1 9.44699 58.2615 7.07418 
96 1 1 8.16516 60.415 4.50268 
97 1 1 7.48038 60.8248 3.99686 
98 1 1 6.51555 61.0321 3.42659 
99 1 1 1.29802 61.4637 8.50635 
100 1 1 1.58297 61.0132 9.35773 
101 1 1 1.91357 60.5423 10.1149 
102 1 1 2.39557 59.9101 10.7344 
103 1 1 3.91772 59.3967 11.2494 
104 1 1 3.08258 59.3241 11.2115 
105 1 1 4.76196 58.9393 11.3048 
106 1 1 5.84772 58.8275 11.1645 
107 1 1 6.69059 58.5125 10.954 
108 1 1 7.32343 58.1931 10.6302 
109 1 1 9.30406 57.2634 8.45313 
110 1 1 8.37377 57.8889 9.75091 
111 1 1 7.73865 57.586 10.3904 
112 1 1 8.81591 57.0846 9.29115 
113 1 1 0.638607 61.2538 6.94341 
114 1 1 0.65726 61.0344 7.92494 
115 1 1 1.06867 61.5225 5.90408 
116 1 1 0.321697 60.8164 6.10052 
117 1 1 2.47801 61.9132 4.65498 
118 1 1 3.08595 61.6942 3.89479 
119 1 1 1.55172 61.3863 4.7805 
120 1 1 3.91449 61.398 3.28593 
121 1 1 5.51914 61.0637 3.1102 
122 1 1 4.46693 60.9911 2.85277 
123 1 1 8.57163 59.5541 4.36979 
124 1 1 8.96124 59.1381 4.93383 
125 1 1 9.38547 58.4275 6.14308 
126 1 1 9.14186 58.4405 5.19699 
127 1 1 9.50248 57.3858 7.53709 
128 1 1 9.55005 57.4827 6.62069 
129 1 1 9.48639 56.5734 7.98511 
130 1 1 6.04705 60.4616 2.83925 
131 1 1 7.8732 59.9109 3.78889 
132 1 1 6.91984 60.1409 3.15052 
133 1 1 0.692491 60.6924 8.81919 
134 1 1 1.09257 60.2994 9.66967 
135 1 1 2.3513 59.1069 11.0788 
136 1 1 1.46724 59.8021 10.2764 
137 1 1 1.61523 59.1018 10.7583 
138 1 1 3.70878 58.6592 11.3651 
139 1 1 2.8385 58.4712 11.2781 
140 1 1 4.38305 57.9763 11.538 
141 1 1 5.33548 58.0387 11.3997 
142 1 1 6.10868 58.0482 11.2038 
143 1 1 6.9117 57.4396 10.9 
144 1 1 9.13972 56.4195 8.81507 
145 1 1 8.17125 56.9724 9.94385 
146 1 1 7.52718 56.8277 10.4648 
147 1 1 8.60777 56.2089 9.58729 
148 1 1 0.0863219 60.5925 7.07345 
149 1 1 0.0887092 60.3029 8.08463 
150 1 1 0.778006 60.823 5.11343 
151 1 1 61.7917 60.1166 6.46789 
152 1 1 0.132101 60.1533 5.37644 
153 1 1 2.1641 61.3274 3.99862 
154 1 1 2.94245 61.0419 3.21157 
155 1 1 1.24214 60.8307 4.22076 
156 1 1 3.70907 60.6541 2.66968 
157 1 1 5.15016 60.415 2.54633 
158 1 1 4.40357 60.3222 2.41952 
159 1 1 8.27255 59.1336 3.78939 
160 1 1 8.77807 58.521 4.20884 
161 1 1 9.09108 57.7494 4.77243 
162 1 1 9.35513 57.5441 5.61857 
163 1 1 9.64264 56.6383 7.08561 
164 1 1 9.62425 56.7759 6.27214 
165 1 1 9.47977 55.7656 8.22538 
166 1 1 9.69468 55.9329 7.42691 
167 1 1 6.31226 59.749 2.54344 
168 1 1 5.58145 59.7469 2.27419 
169 1 1 7.69596 59.1547 3.21288 
170 1 1 6.93772 59.218 2.6708 
171 1 1 0.289511 59.8036 8.95792 
172 1 1 0.650493 59.4225 9.70387 
173 1 1 2.00614 58.3879 11.0645 
174 1 1 0.885776 58.8432 10.2433 
175 1 1 1.33738 58.3833 10.6964 
176 1 1 2.49236 57.7211 11.2418 
177 1 1 3.42804 57.8481 11.4252 
178 1 1 3.96255 57.0866 11.4694 
179 1 1 4.94861 57.2701 11.4948 
180 1 1 5.86449 57.3505 11.2943 
181 1 1 6.34705 56.7043 11.1019 
182 1 1 7.00405 56.4086 10.8476 
183 1 1 9.0423 55.4299 9.0873 
184 1 1 9.44219 54.9513 8.44895 
185 1 1 7.86579 56.0392 10.2876 
186 1 1 8.4474 55.4237 9.75231 
187 1 1 61.6583 59.858 7.38121 
188 1 1 61.7381 59.3468 8.24347 
189 1 1 0.594874 60.185 4.47072 
190 1 1 0.16295 59.5319 4.53714 
191 1 1 61.5142 59.3729 6.72734 
192 1 1 61.5825 59.4489 5.98338 
193 1 1 61.8005 59.3485 5.20307 
194 1 1 1.93521 60.6657 3.41196 
195 1 1 2.68968 60.2989 2.74434 
196 1 1 1.29544 60.0651 3.60845 
197 1 1 3.60669 59.8373 2.19999 
198 1 1 4.70178 59.6513 2.09567 
199 1 1 8.20812 58.4345 3.4471 
200 1 1 8.51219 57.7478 3.57352 
201 1 1 8.90993 57.3712 4.12677 
202 1 1 9.20473 56.901 4.79924 
203 1 1 9.63078 56.3357 5.54246 
204 1 1 9.77006 55.8125 6.45786 
205 1 1 9.74553 55.0303 7.48055 
206 1 1 6.13927 59.0419 2.17337 
207 1 1 5.23386 58.9208 1.97231 
208 1 1 7.46947 58.3744 2.7937 
209 1 1 6.68187 58.3582 2.25444 
210 1 1 0.0281238 58.8677 9.05757 
211 1 1 0.360877 58.4021 9.72863 
212 1 1 1.65047 57.6424 10.8543 
213 1 1 0.807607 57.7277 10.254 
214 1 1 2.14685 56.9212 11.0242 
215 1 1 3.04187 57.0546 11.3306 
216 1 1 9.57996 54.2016 8.14364 
217 1 1 9.18731 54.3322 9.01718 
218 1 1 3.4867 56.2473 11.3783 
219 1 1 4.43556 56.2912 11.4623 
220 1 1 5.49315 56.391 11.3455 
221 1 1 6.39179 55.8832 11.0573 
222 1 1 7.14502 55.4603 10.6618 
223 1 1 8.6919 54.6544 9.66414 
224 1 1 7.93165 54.9419 10.1997 
225 1 1 61.6065 58.3584 8.37279 
226 1 1 61.4165 58.7666 7.40788 
227 1 1 0.711633 59.3844 3.81729 
228 1 1 0.202677 58.8514 4.09946 
229 1 1 61.813 58.7275 4.7452 
230 1 1 61.3009 58.6521 6.40259 
231 1 1 61.5466 58.6533 5.54353 
232 1 1 1.90392 59.7734 2.93252 
233 1 1 2.63616 59.3744 2.41111 
234 1 1 1.31894 59.163 3.16973 
235 1 1 3.31916 58.7565 2.07048 
236 1 1 4.22425 58.9072 1.93286 
237 1 1 7.99426 57.666 3.01953 
238 1 1 8.48109 56.798 3.33784 
239 1 1 9.02625 56.3963 4.06926 
240 1 1 9.45017 55.934 4.83353 
241 1 1 9.8053 55.3975 5.5642 
242 1 1 9.90027 54.7648 6.42449 
243 1 1 9.90156 54.0287 7.2632 
244 1 1 5.7808 58.1869 1.91519 
245 1 1 4.78018 58.1689 1.80997 
246 1 1 7.17587 57.5977 2.42966 
247 1 1 6.36131 57.4897 2.05484 
248 1 1 61.9143 57.9663 9.09671 
249 1 1 0.208641 57.5088 9.61261 
250 1 1 1.29896 56.8765 10.4614 
251 1 1 0.583347 56.8562 9.8507 
252 1 1 1.75494 56.1367 10.6695 
253 1 1 2.62802 56.1053 11.1436 
254 1 1 9.71826 53.2616 8.05955 
255 1 1 9.3148 53.5111 8.89475 
256 1 1 8.74922 53.6872 9.57179 
257 1 1 3.19608 55.4509 11.2548 
258 1 1 4.05974 55.4566 11.3969 
259 1 1 4.85244 55.5971 11.384 
260 1 1 5.59111 55.2728 11.239 
261 1 1 6.34708 54.8364 10.9853 
262 1 1 7.24185 54.4517 10.5182 
263 1 1 8.04732 54.0213 10.1067 
264 1 1 61.6309 57.5356 8.47098 
265 1 1 61.3645 57.7605 7.76513 
266 1 1 61.2261 57.8154 6.78291 
267 1 1 0.791175 58.4395 3.43581 
268 1 1 0.0421504 58.094 4.15725 
269 1 1 61.5981 58.0172 4.98431 
270 1 1 61.3117 57.8627 5.8504 
271 1 1 1.97177 58.8604 2.64996 
272 1 1 2.6026 58.5483 2.3001 
273 1 1 1.46797 58.3551 2.88102 
274 1 1 2.97499 57.9344 2.10004 
275 1 1 3.85384 58.0058 1.84149 
276 1 1 7.64962 56.8215 2.59497 
277 1 1 7.98871 56.0854 2.77119 
278 1 1 8.66839 55.7192 3.3304 
279 1 1 9.19675 55.3555 3.94759 
280 1 1 9.66315 54.9533 4.74817 
281 1 1 9.92697 54.4592 5.51314 
282 1 1 10.0448 53.7749 6.39661 
283 1 1 9.97444 53.0458 7.19901 
284 1 1 5.45206 57.3969 1.79314 
285 1 1 4.56584 57.2408 1.70178 
286 1 1 6.89712 56.7169 2.16312 
287 1 1 6.0395 56.7148 1.8077 
288 1 1 61.99 56.8021 9.0482 
289 1 1 0.985282 56.1465 10.116 
290 1 1 0.434149 56.1654 9.51454 
291 1 1 9.76358 52.3269 7.92735 
292 1 1 1.49529 55.3278 10.4137 
293 1 1 2.236 55.3526 10.9069 
294 1 1 9.40176 52.5312 8.75139 
295 1 1 8.80506 52.7658 9.46235 
296 1 1 8.13617 53.0734 10.052 
297 1 1 2.82387 54.6416 11.0714 
298 1 1 3.58967 54.7878 11.3069 
299 1 1 4.59822 54.5884 11.2942 
300 1 1 5.58283 54.2386 11.1452 
301 1 1 6.4789 53.9367 10.8838 
302 1 1 7.35749 53.4924 10.5122 
303 1 1 61.2896 57.039 6.24858 
304 1 1 61.4848 56.909 8.10402 
305 1 1 61.3417 56.9026 7.24506 
306 1 1 1.19042 57.6101 3.02091 
307 1 1 0.422874 57.5202 3.67878 
308 1 1 61.8478 57.3023 4.43087 
309 1 1 61.4957 57.1966 5.30839 
310 1 1 2.04423 57.7882 2.50268 
311 1 1 2.72055 57.1718 2.16751 
312 1 1 3.53803 57.054 1.85367 
313 1 1 7.41858 55.8062 2.2019 
314 1 1 8.13143 55.295 2.69193 
315 1 1 8.80812 54.8617 3.20768 
316 1 1 9.29112 54.4304 3.8229 
317 1 1 9.70721 54.0147 4.57914 
318 1 1 9.98779 53.4686 5.39548 
319 1 1 10.1647 52.7591 6.21471 
320 1 1 10.0716 52.095 7.06127 
321 1 1 5.16201 56.5529 1.63495 
322 1 1 4.33632 56.484 1.64653 
323 1 1 6.4978 55.9015 1.78661 
324 1 1 5.66805 55.9817 1.65383 
325 1 1 61.6714 56.1598 8.39455 
326 1 1 0.00107009 55.7233 8.97122 
327 1 1 0.638501 55.3033 9.68386 
328 1 1 1.20337 54.6195 10.1152 
329 1 1 9.93379 51.344 7.82946 
330 1 1 9.49567 51.5171 8.58039 
331 1 1 1.96135 54.4096 10.6264 
332 1 1 8.90737 51.7466 9.38217 
333 1 1 8.21823 52.1553 9.94703 
334 1 1 7.40534 52.526 10.5102 
335 1 1 2.69085 53.8811 10.8955 
336 1 1 3.6301 53.9167 11.1042 
337 1 1 4.72313 53.5567 11.1428 
338 1 1 5.69931 53.3134 11.0797 
339 1 1 6.58341 52.9505 10.8587 
340 1 1 1.52304 56.9491 2.7849 
341 1 1 61.4086 56.3347 5.5628 
342 1 1 61.3357 56.1829 6.53028 
343 1 1 61.4467 55.9684 7.59916 
344 1 1 0.921111 56.8199 3.24273 
345 1 1 0.265332 56.6593 3.89089 
346 1 1 61.7423 56.4064 4.73058 
347 1 1 61.5888 55.6069 5.12477 
348 1 1 2.19945 56.6693 2.40344 
349 1 1 2.86631 56.2902 2.04601 
350 1 1 3.74181 55.8891 1.74802 
351 1 1 6.88297 55.1667 1.84832 
352 1 1 7.53818 54.8024 2.18444 
353 1 1 8.263 54.3084 2.59711 
354 1 1 8.89966 53.8695 3.15819 
355 1 1 9.46075 53.3579 3.75403 
356 1 1 9.85803 53.009 4.48794 
357 1 1 10.1552 52.4457 5.25415 
358 1 1 10.2518 51.7755 6.1694 
359 1 1 10.2575 51.0515 7.01075 
360 1 1 4.79436 55.5902 1.56169 
361 1 1 5.90725 55.0648 1.62557 
362 1 1 61.6885 55.2855 8.34187 
363 1 1 0.155437 54.7017 8.88859 
364 1 1 0.73896 54.1957 9.49633 
365 1 1 1.42788 53.7961 10.1798 
366 1 1 10.0811 50.2809 7.82607 
367 1 1 9.70177 50.5672 8.49214 
368 1 1 9.08078 50.8046 9.28706 
369 1 1 2.08222 53.3669 10.59 
370 1 1 8.37745 51.1408 9.82998 
371 1 1 7.58081 51.5437 10.3927 
372 1 1 6.71064 51.934 10.8303 
373 1 1 2.95788 53.0686 10.8074 
374 1 1 3.9061 52.8904 10.9903 
375 1 1 4.87637 52.5879 11.0604 
376 1 1 5.83822 52.3641 11.0718 
377 1 1 1.39131 56.0484 2.77547 
378 1 1 61.425 55.5169 6.02942 
379 1 1 61.4301 55.4298 6.79497 
380 1 1 61.494 54.7937 7.43109 
381 1 1 0.603564 55.861 3.52442 
382 1 1 0.0175981 55.6904 4.23659 
383 1 1 61.849 54.8881 4.69219 
384 1 1 61.5168 54.8866 5.52675 
385 1 1 2.199 55.7197 2.27296 
386 1 1 3.07113 55.3457 1.83404 
387 1 1 3.95904 54.9295 1.61294 
388 1 1 6.72635 54.3473 1.79412 
389 1 1 7.56813 53.9159 2.10761 
390 1 1 8.33854 53.333 2.49019 
391 1 1 8.96781 52.9268 3.02127 
392 1 1 9.51702 52.4146 3.64594 
393 1 1 9.96279 51.9758 4.42272 
394 1 1 10.2212 51.4709 5.24668 
395 1 1 10.3785 50.7259 6.11359 
396 1 1 10.4018 50.0222 6.91853 
397 1 1 4.98918 54.4909 1.48077 
398 1 1 5.9439 53.9869 1.54193 
399 1 1 61.7883 54.3587 8.09328 
400 1 1 0.331058 53.7954 8.7646 
401 1 1 0.879516 53.2634 9.43832 
402 1 1 10.356 49.3928 7.61603 
403 1 1 1.48179 52.8175 10.084 
404 1 1 9.83475 49.5737 8.55418 
405 1 1 9.25778 49.8769 9.24233 
406 1 1 8.50799 50.1739 9.83389 
407 1 1 2.27855 52.441 10.5174 
408 1 1 7.72221 50.5642 10.3758 
409 1 1 6.89308 50.9636 10.7739 
410 1 1 5.97543 51.3457 11.0176 
411 1 1 3.18923 52.1412 10.7895 
412 1 1 4.09651 51.9026 10.9433 
413 1 1 5.00981 51.5203 10.9955 
414 1 1 0.956672 55.2571 3.13842 
415 1 1 1.58477 54.9689 2.55031 
416 1 1 61.4563 54.5033 6.38634 
417 1 1 61.6289 53.7999 7.20102 
418 1 1 0.450082 54.9384 3.7741 
419 1 1 0.122617 54.1852 4.33417 
420 1 1 61.7709 53.9638 5.23568 
421 1 1 2.34525 54.7533 2.0823 
422 1 1 3.22423 54.4057 1.77326 
423 1 1 4.13582 53.994 1.52022 
424 1 1 6.82477 53.3554 1.72441 
425 1 1 7.68946 52.9686 1.9117 
426 1 1 8.49795 52.3967 2.44489 
427 1 1 9.12976 51.9029 2.9464 
428 1 1 9.73802 51.4088 3.66071 
429 1 1 10.5607 49.0301 6.83217 
430 1 1 10.1506 50.9118 4.38788 
431 1 1 10.4273 50.4149 5.23474 
432 1 1 10.5121 49.6638 6.03101 
433 1 1 5.04578 53.5204 1.38178 
434 1 1 5.94516 53.0084 1.41997 
435 1 1 61.9558 53.3382 8.00249 
436 1 1 0.492845 52.8338 8.71765 
437 1 1 1.01598 52.3344 9.38079 
438 1 1 10.4504 48.3293 7.56312 
439 1 1 10.0962 48.6571 8.34254 
440 1 1 1.67561 51.8487 9.99038 
441 1 1 9.48177 48.8416 9.1742 
442 1 1 8.72077 49.2282 9.78529 
443 1 1 7.93595 49.6095 10.3041 
444 1 1 2.51752 51.4954 10.533 
445 1 1 7.08838 50.0564 10.7014 
446 1 1 6.11488 50.3309 10.9061 
447 1 1 5.20528 50.5666 10.9907 
448 1 1 3.34217 51.1599 10.7715 
449 1 1 4.28163 50.8384 10.8424 
450 1 1 0.978133 54.4125 3.11534 
451 1 1 1.66995 54.103 2.49047 
452 1 1 61.5967 53.4165 6.26043 
453 1 1 61.7661 52.879 7.13277 
454 1 1 0.576318 53.8086 3.73136 
455 1 1 0.151208 53.3418 4.49162 
456 1 1 61.8404 52.9376 5.31831 
457 1 1 2.41192 53.7876 1.97074 
458 1 1 3.29221 53.447 1.62534 
459 1 1 4.20588 52.9833 1.44587 
460 1 1 6.90731 52.4602 1.6302 
461 1 1 7.86621 51.9875 1.84567 
462 1 1 8.64121 51.3552 2.30749 
463 1 1 9.26274 50.9067 2.86438 
464 1 1 9.76838 50.4446 3.54531 
465 1 1 10.6809 47.9752 6.77485 
466 1 1 10.6001 48.6406 5.99306 
467 1 1 10.2443 49.9791 4.29695 
468 1 1 10.4768 49.4302 5.06043 
469 1 1 5.1472 52.4341 1.29693 
470 1 1 6.13468 52.0327 1.35016 
471 1 1 0.14631 52.3374 7.89551 
472 1 1 0.629828 51.8375 8.58619 
473 1 1 1.16952 51.3595 9.35983 
474 1 1 10.551 47.256 7.49315 
475 1 1 10.1563 47.631 8.28073 
476 1 1 9.62655 47.9002 9.01372 
477 1 1 1.90457 50.8687 9.92643 
478 1 1 8.91707 48.2505 9.65087 
479 1 1 8.15464 48.6215 10.2684 
480 1 1 7.23496 49.0291 10.6543 
481 1 1 2.65289 50.4503 10.4231 
482 1 1 6.26575 49.354 10.8312 
483 1 1 5.28583 49.5428 10.9413 
484 1 1 4.45018 49.9026 10.8177 
485 1 1 3.55414 50.2121 10.6449 
486 1 1 1.09556 53.4221 3.04363 
487 1 1 1.77715 53.1475 2.4178 
488 1 1 61.7484 52.4651 6.2212 
489 1 1 61.9579 51.9515 7.05047 
490 1 1 0.616974 52.8534 3.76839 
491 1 1 0.211204 52.4384 4.50724 
492 1 1 0.0263653 51.9041 5.2974 
493 1 1 2.53297 52.8113 1.97403 
494 1 1 3.44403 52.393 1.59674 
495 1 1 4.28275 51.9754 1.38921 
496 1 1 10.8056 46.9531 6.66447 
497 1 1 7.07573 51.5288 1.46812 
498 1 1 7.94435 51.0068 1.65211 
499 1 1 8.70222 50.448 2.1404 
500 1 1 9.26975 49.9544 2.76081 
501 1 1 9.85208 49.5086 3.48302 
502 1 1 10.7128 47.6514 5.80316 
503 1 1 10.5117 48.3507 4.98173 
504 1 1 10.232 48.9067 4.19408 
505 1 1 5.36358 51.5159 1.20477 
506 1 1 6.203 51.1055 1.19836 
507 1 1 10.6646 46.3662 7.48028 
508 1 1 0.307243 51.3552 7.8057 
509 1 1 0.761402 50.8902 8.57076 
510 1 1 1.30933 50.3895 9.27799 
511 1 1 10.1925 46.6293 8.18565 
512 1 1 9.69421 46.918 8.94853 
513 1 1 9.05541 47.2613 9.61984 
514 1 1 2.0392 49.9158 9.83389 
515 1 1 8.33112 47.664 10.1481 
516 1 1 7.51837 48.0365 10.562 
517 1 1 6.5692 48.3943 10.7726 
518 1 1 2.84224 49.5662 10.3031 
519 1 1 5.57096 48.6474 10.8589 
520 1 1 4.54174 48.8452 10.7912 
521 1 1 3.67607 49.1787 10.615 
522 1 1 1.15081 52.5356 3.0164 
523 1 1 1.92711 52.1959 2.42527 
524 1 1 61.9404 51.4571 6.09245 
525 1 1 0.101971 50.9881 6.9602 
526 1 1 0.70829 51.9184 3.60617 
527 1 1 0.337398 51.4749 4.35751 
528 1 1 0.164001 50.9705 5.1965 
529 1 1 2.72771 51.7949 1.93765 
530 1 1 3.57475 51.4288 1.56727 
531 1 1 4.51919 51.0183 1.27073 
532 1 1 10.9709 45.9986 6.63253 
533 1 1 10.8946 46.7054 5.8207 
534 1 1 7.16606 50.57 1.36654 
535 1 1 8.00436 49.9649 1.68801 
536 1 1 8.83776 49.4712 2.17498 
537 1 1 9.38992 48.9388 2.81088 
538 1 1 9.89004 48.4466 3.39743 
539 1 1 10.6237 47.2785 4.91699 
540 1 1 10.3266 47.9238 4.14272 
541 1 1 5.54419 50.4874 1.01723 
542 1 1 6.45896 50.0154 1.049 
543 1 1 10.8295 45.3372 7.42523 
544 1 1 10.3058 45.5889 8.21397 
545 1 1 0.449612 50.3819 7.65107 
546 1 1 0.811707 49.9021 8.49145 
547 1 1 1.48321 49.4278 9.15819 
548 1 1 9.77 45.9056 8.90079 
549 1 1 9.1624 46.3155 9.57732 
550 1 1 8.36984 46.7219 10.101 
551 1 1 2.21595 48.9154 9.73331 
552 1 1 7.52978 47.0547 10.4634 
553 1 1 6.6707 47.4344 10.6588 
554 1 1 5.67886 47.679 10.7435 
555 1 1 2.98041 48.5542 10.2132 
556 1 1 4.7903 47.9437 10.6505 
557 1 1 3.83207 48.1819 10.5193 
558 1 1 1.34647 51.4847 2.85482 
559 1 1 2.03127 51.211 2.30075 
560 1 1 0.145758 50.4877 5.93652 
561 1 1 0.344645 49.9916 6.78818 
562 1 1 0.887841 50.9854 3.50624 
563 1 1 0.516538 50.5519 4.24219 
564 1 1 0.289085 50.0087 5.05414 
565 1 1 2.81827 50.762 1.84637 
566 1 1 3.74556 50.4283 1.42614 
567 1 1 4.60558 50.0395 1.10868 
568 1 1 10.9781 45.0386 6.52382 
569 1 1 11.0031 45.7098 5.75826 
570 1 1 10.8123 46.3087 4.86705 
571 1 1 7.33732 49.6064 1.34326 
572 1 1 8.07813 49.0512 1.66193 
573 1 1 8.82945 48.459 2.10643 
574 1 1 9.47638 47.9215 2.72682 
575 1 1 10.0679 47.4518 3.38529 
576 1 1 10.4669 46.8535 4.05436 
577 1 1 5.62421 49.5733 0.969316 
578 1 1 6.53303 49.0995 1.00672 
579 1 1 10.8433 44.3692 7.28136 
580 1 1 10.4524 44.6643 8.09944 
581 1 1 9.87731 44.9978 8.87005 
582 1 1 0.599516 49.43 7.63156 
583 1 1 0.994661 48.9477 8.39816 
584 1 1 1.61101 48.472 9.06272 
585 1 1 9.23452 45.3455 9.48373 
586 1 1 8.45794 45.7409 10.032 
587 1 1 7.65072 46.0711 10.3495 
588 1 1 2.30504 47.9948 9.55419 
589 1 1 6.67582 46.436 10.5104 
590 1 1 5.75783 46.7401 10.5699 
591 1 1 4.87345 46.9809 10.5245 
592 1 1 3.07132 47.6246 10.0444 
593 1 1 3.98667 47.2811 10.3631 
594 1 1 1.47427 50.4895 2.82576 
595 1 1 2.14223 50.207 2.24062 
596 1 1 0.326606 49.4595 5.84786 
597 1 1 0.49827 48.9803 6.78229 
598 1 1 1.00397 49.987 3.49934 
599 1 1 0.637556 49.4294 4.17817 
600 1 1 0.498107 49.0278 5.02055 
601 1 1 2.95947 49.8412 1.71003 
602 1 1 3.86049 49.5013 1.31704 
603 1 1 4.73839 49.0949 1.09895 
604 1 1 11.0092 43.9854 6.43303 
605 1 1 10.8489 43.3591 7.16572 
606 1 1 11.0961 43.0652 6.27872 
607 1 1 11.0397 44.6824 5.65812 
608 1 1 10.8549 45.3149 4.77111 
609 1 1 10.6062 45.8754 4.02568 
610 1 1 7.34782 48.5655 1.2364 
611 1 1 8.17274 48.0515 1.54608 
612 1 1 9.02953 47.4998 1.99155 
613 1 1 9.68783 46.9544 2.62524 
614 1 1 10.2429 46.4226 3.24826 
615 1 1 5.73738 48.5863 0.926341 
616 1 1 6.61391 48.153 0.992617 
617 1 1 10.5514 43.6343 7.99263 
618 1 1 10.0293 44.0555 8.72629 
619 1 1 9.32526 44.3657 9.44154 
620 1 1 0.82965 48.4436 7.54505 
621 1 1 1.18683 47.9666 8.35178 
622 1 1 1.80465 47.4323 8.90771 
623 1 1 8.55313 44.7681 9.99172 
624 1 1 7.68406 45.0883 10.3644 
625 1 1 6.80236 45.4732 10.5146 
626 1 1 2.44334 47.0457 9.492 
627 1 1 5.84181 45.7015 10.5393 
628 1 1 4.99673 46.0187 10.4514 
629 1 1 4.12145 46.3354 10.3201 
630 1 1 3.25002 46.6586 9.97271 
631 1 1 10.5861 42.6393 7.94189 
632 1 1 10.9949 42.277 7.01331 
633 1 1 1.58377 49.5168 2.80577 
634 1 1 2.30151 49.2326 2.19324 
635 1 1 0.486199 48.5082 5.84887 
636 1 1 0.703492 47.9872 6.71893 
637 1 1 1.06991 48.9567 3.42845 
638 1 1 0.861442 48.4801 4.17875 
639 1 1 0.670693 48.035 4.96274 
640 1 1 3.20391 48.8807 1.70644 
641 1 1 4.05377 48.4902 1.30764 
642 1 1 4.92165 48.0459 0.974695 
643 1 1 11.1424 43.7333 5.49666 
644 1 1 11.1975 42.2593 5.99228 
645 1 1 11.1725 42.8293 5.29078 
646 1 1 10.9582 44.3956 4.64022 
647 1 1 10.6787 44.8879 3.81227 
648 1 1 10.3563 45.4797 3.10766 
649 1 1 7.43215 47.5943 1.14218 
650 1 1 8.36185 47.0687 1.43534 
651 1 1 9.17233 46.5192 1.87056 
652 1 1 9.82256 46.0226 2.52405 
653 1 1 5.8621 47.6124 0.825017 
654 1 1 6.70182 47.1082 0.908461 
655 1 1 10.07 43.0679 8.73418 
656 1 1 9.45188 43.4321 9.36486 
657 1 1 8.63589 43.7699 9.90259 
658 1 1 1.02091 47.4882 7.49483 
659 1 1 1.45348 46.985 8.22919 
660 1 1 2.01542 46.4795 8.87421 
661 1 1 7.8345 44.1045 10.287 
662 1 1 6.95147 44.3939 10.532 
663 1 1 5.99597 44.6977 10.5301 
664 1 1 2.62053 46.0232 9.44691 
665 1 1 5.10642 44.9983 10.3734 
666 1 1 4.24058 45.3107 10.1889 
667 1 1 3.43306 45.6324 9.89732 
668 1 1 10.1143 42.0297 8.61087 
669 1 1 10.6212 41.6469 7.82587 
670 1 1 11.1971 41.6357 6.51614 
671 1 1 11.3937 41.435 5.7857 
672 1 1 10.9982 41.1516 7.11229 
673 1 1 1.78376 48.6125 2.69307 
674 1 1 2.54584 48.2608 2.073 
675 1 1 0.707765 47.5071 5.7727 
676 1 1 0.891498 47.0113 6.62393 
677 1 1 1.32998 48.0068 3.27243 
678 1 1 1.01277 47.4813 4.16794 
679 1 1 0.838497 47.0259 4.88948 
680 1 1 3.27311 47.9176 1.57683 
681 1 1 4.13186 47.5146 1.21778 
682 1 1 4.95324 47.0653 0.847265 
683 1 1 11.0338 43.4 4.47429 
684 1 1 11.3174 41.8803 5.13774 
685 1 1 11.14 42.3895 4.39369 
686 1 1 10.7883 43.9036 3.74645 
687 1 1 10.3898 44.485 2.95765 
688 1 1 9.83637 45.0277 2.35071 
689 1 1 7.59902 46.6225 1.12874 
690 1 1 8.43472 46.0795 1.46278 
691 1 1 9.27244 45.5913 1.77564 
692 1 1 5.93739 46.5848 0.754244 
693 1 1 6.86128 46.0738 0.821096 
694 1 1 9.47133 42.4192 9.20831 
695 1 1 8.79478 42.7831 9.78659 
696 1 1 7.93932 43.0677 10.2326 
697 1 1 1.23213 46.4803 7.48425 
698 1 1 1.66796 45.9817 8.10202 
699 1 1 2.17291 45.4931 8.72196 
700 1 1 7.05701 43.4701 10.4993 
701 1 1 6.05851 43.7434 10.5292 
702 1 1 5.20689 44.0227 10.4004 
703 1 1 2.82915 45.0639 9.31667 
704 1 1 4.36608 44.2964 10.1558 
705 1 1 3.5282 44.6337 9.76876 
706 1 1 9.53864 41.3936 9.09081 
707 1 1 10.1024 40.9642 8.477 
708 1 1 10.701 40.5444 7.8025 
709 1 1 11.4917 40.8475 5.09889 
710 1 1 11.3657 40.7114 6.21806 
711 1 1 11.1602 40.3627 6.98112 
712 1 1 1.99684 47.6673 2.57675 
713 1 1 2.61751 47.2586 1.98581 
714 1 1 0.848441 46.4881 5.71615 
715 1 1 0.996271 46.0601 6.55036 
716 1 1 1.45934 47.0927 3.26521 
717 1 1 1.18262 46.5338 4.02293 
718 1 1 1.05466 46.0499 4.80237 
719 1 1 3.41914 46.8577 1.50607 
720 1 1 4.18762 46.5248 1.09887 
721 1 1 4.96742 46.0877 0.782978 
722 1 1 10.9661 42.9077 3.64188 
723 1 1 11.2526 41.4301 4.25341 
724 1 1 11.0684 41.9914 3.53543 
725 1 1 10.5058 43.5008 2.9582 
726 1 1 9.89879 44.0039 2.24532 
727 1 1 9.3297 44.542 1.66021 
728 1 1 7.76643 45.6255 1.06114 
729 1 1 8.61891 45.0451 1.29798 
730 1 1 6.05725 45.5963 0.695986 
731 1 1 6.95781 45.1749 0.725681 
732 1 1 8.8453 41.7888 9.77925 
733 1 1 8.08781 42.133 10.1738 
734 1 1 7.15895 42.4928 10.4327 
735 1 1 1.32984 45.4986 7.28996 
736 1 1 1.76112 45.0158 7.96378 
737 1 1 2.2938 44.4976 8.58923 
738 1 1 6.21947 42.7134 10.4559 
739 1 1 5.3093 42.9008 10.3918 
740 1 1 4.52154 43.3209 10.1094 
741 1 1 2.93497 44.0366 9.18302 
742 1 1 3.71719 43.7047 9.68041 
743 1 1 9.60603 40.3244 9.14194 
744 1 1 8.93535 40.8226 9.65554 
745 1 1 10.1946 39.9548 8.55678 
746 1 1 9.74013 39.3096 9.10984 
747 1 1 11.3886 40.6673 4.12439 
748 1 1 10.7613 39.6077 8.00146 
749 1 1 11.6314 40.011 4.5419 
750 1 1 11.0813 39.6647 7.31614 
751 1 1 11.6132 39.8946 5.56702 
752 1 1 11.4235 39.8195 6.4158 
753 1 1 2.05823 46.6628 2.48301 
754 1 1 2.73592 46.2117 1.86939 
755 1 1 1.0111 45.538 5.57653 
756 1 1 1.07787 45.0825 6.41958 
757 1 1 1.54375 46.1089 3.10193 
758 1 1 1.24005 45.5527 3.85949 
759 1 1 1.08351 45.0747 4.64275 
760 1 1 3.48708 45.8657 1.38519 
761 1 1 4.2943 45.4457 0.980169 
762 1 1 5.16075 45.11 0.681066 
763 1 1 10.6455 42.5364 2.83665 
764 1 1 11.1573 41.044 3.43272 
765 1 1 10.751 41.521 2.67061 
766 1 1 10.0665 43.0862 2.21407 
767 1 1 9.44267 43.4788 1.53445 
768 1 1 8.60477 44.0865 1.07755 
769 1 1 7.75898 44.6319 0.842471 
770 1 1 6.11949 44.5965 0.564853 
771 1 1 7.03239 44.1605 0.557124 
772 1 1 8.1239 41.1298 10.1535 
773 1 1 7.27852 41.5648 10.4553 
774 1 1 6.3463 41.7857 10.4635 
775 1 1 1.42193 44.4966 7.15408 
776 1 1 1.84694 43.9747 7.9034 
777 1 1 2.33843 43.436 8.57623 
778 1 1 5.50247 42.0217 10.3733 
779 1 1 4.62927 42.246 10.0843 
780 1 1 3.84814 42.6227 9.67266 
781 1 1 3.11832 43.0884 9.20182 
782 1 1 5.77143 41.1253 10.4261 
783 1 1 9.11083 39.8054 9.62369 
784 1 1 8.23934 40.143 10.0496 
785 1 1 10.3617 38.8973 8.46043 
786 1 1 9.18712 38.8042 9.51301 
787 1 1 9.70808 38.4954 9.00982 
788 1 1 10.0538 37.8564 8.66311 
789 1 1 11.3919 40.0208 3.41657 
790 1 1 11.7543 39.2325 3.94428 
791 1 1 10.9533 38.8985 7.65816 
792 1 1 11.7489 39.1177 4.92516 
793 1 1 11.3862 38.9605 6.7418 
794 1 1 11.6611 38.9904 5.84825 
795 1 1 2.08825 45.6749 2.35138 
796 1 1 2.74093 45.1752 1.7111 
797 1 1 1.07236 44.5467 5.43271 
798 1 1 1.20691 44.0655 6.32583 
799 1 1 1.60008 45.1036 2.91967 
800 1 1 1.21368 44.5936 3.77163 
801 1 1 1.07759 44.0967 4.53053 
802 1 1 3.46333 44.8202 1.27412 
803 1 1 4.33959 44.4192 0.9112 
804 1 1 5.25049 44.0737 0.601213 
805 1 1 10.2318 42.13 2.074 
806 1 1 10.8827 40.5459 2.51753 
807 1 1 10.3741 41.1269 1.91129 
808 1 1 9.60207 42.5487 1.46051 
809 1 1 8.75362 43.1153 0.974512 
810 1 1 7.90404 43.5901 0.710357 
811 1 1 6.24624 43.656 0.376747 
812 1 1 7.11579 43.2468 0.409398 
813 1 1 7.48158 40.5684 10.3037 
814 1 1 6.65166 40.8835 10.438 
815 1 1 1.4511 43.4746 7.10399 
816 1 1 1.8562 42.9669 7.88053 
817 1 1 2.46108 42.505 8.55071 
818 1 1 4.85552 41.1591 10.1095 
819 1 1 3.93106 41.6563 9.71489 
820 1 1 3.16523 42.0395 9.16414 
821 1 1 6.09283 40.3639 10.3517 
822 1 1 5.33065 40.4522 10.2241 
823 1 1 7.60295 39.7261 10.19 
824 1 1 8.3813 39.1428 9.93127 
825 1 1 8.58743 38.3083 9.67645 
826 1 1 10.7085 38.0127 8.01565 
827 1 1 9.25961 37.7411 9.2804 
828 1 1 9.87135 37.1094 8.89017 
829 1 1 10.5205 37.218 8.27576 
830 1 1 11.082 39.591 2.44262 
831 1 1 11.4705 39.2493 3.04791 
832 1 1 11.7143 38.5846 3.38388 
833 1 1 11.8796 38.4037 4.28607 
834 1 1 11.2402 38.1672 7.15696 
835 1 1 11.8698 38.2033 5.26264 
836 1 1 11.6271 38.1491 6.23222 
837 1 1 2.11203 44.6754 2.25167 
838 1 1 2.84114 44.1879 1.62941 
839 1 1 1.09103 43.5112 5.32708 
840 1 1 1.22113 43.1267 6.25917 
841 1 1 1.61163 44.1553 2.9029 
842 1 1 1.30158 43.5655 3.69351 
843 1 1 1.1244 43.0988 4.33223 
844 1 1 3.56533 43.8278 1.16913 
845 1 1 4.42178 43.5048 0.795857 
846 1 1 5.31616 43.1505 0.408882 
847 1 1 9.7328 41.5275 1.34972 
848 1 1 10.5692 40.1 1.83228 
849 1 1 9.99689 40.596 1.33459 
850 1 1 8.94659 42.0578 0.882833 
851 1 1 8.0027 42.5238 0.509704 
852 1 1 6.30296 42.7338 0.292232 
853 1 1 7.06465 42.3324 0.23321 
854 1 1 6.75892 39.8494 10.3063 
855 1 1 1.49585 42.5032 7.06341 
856 1 1 1.9846 42.0012 7.83863 
857 1 1 4.63937 40.1367 9.94517 
858 1 1 2.532 41.5063 8.49132 
859 1 1 3.99679 40.6546 9.64676 
860 1 1 3.16055 41.0775 9.13508 
861 1 1 5.53211 39.5947 10.2 
862 1 1 4.78311 39.3525 9.83685 
863 1 1 7.2871 38.9695 10.1484 
864 1 1 7.80965 38.1723 9.95241 
865 1 1 8.33924 37.541 9.6836 
866 1 1 8.78724 36.906 9.51696 
867 1 1 11.1197 37.2705 7.37428 
868 1 1 9.40182 36.5925 9.15245 
869 1 1 10.0664 36.3725 8.53305 
870 1 1 10.6914 36.042 7.6204 
871 1 1 10.7578 39.2743 1.82842 
872 1 1 11.2828 38.5781 2.33184 
873 1 1 11.6171 37.9765 2.89574 
874 1 1 11.7965 37.6615 3.65729 
875 1 1 11.9427 37.5592 4.56057 
876 1 1 11.512 37.3115 6.491 
877 1 1 11.7503 37.3801 5.55806 
878 1 1 2.17448 43.6347 2.1788 
879 1 1 2.90634 43.1762 1.62491 
880 1 1 1.12793 42.6111 5.22714 
881 1 1 1.30841 42.1489 6.15855 
882 1 1 1.67768 43.1125 2.83626 
883 1 1 1.40628 42.4972 3.56395 
884 1 1 1.22434 42.1399 4.41992 
885 1 1 3.69555 42.8186 1.07768 
886 1 1 4.51394 42.5803 0.649673 
887 1 1 5.41666 42.2127 0.333389 
888 1 1 9.112 41.039 0.752179 
889 1 1 9.4855 40.1563 0.829401 
890 1 1 10.1415 39.5204 1.21644 
891 1 1 8.27733 41.5829 0.468612 
892 1 1 7.59544 41.7397 0.231288 
893 1 1 6.20776 41.8043 0.189573 
894 1 1 6.89257 41.5042 0.122572 
895 1 1 6.34363 38.9169 10.1399 
896 1 1 1.57609 41.5871 7.00676 
897 1 1 2.12518 41.0333 7.78175 
898 1 1 4.02634 39.5062 9.43026 
899 1 1 2.63631 40.5153 8.4563 
900 1 1 3.29387 40.1001 8.98738 
901 1 1 5.38675 38.7746 9.96131 
902 1 1 4.54106 38.5981 9.54168 
903 1 1 6.8669 38.0894 10.0376 
904 1 1 7.41423 37.358 9.94081 
905 1 1 8.02479 36.5341 9.6617 
906 1 1 8.79751 36.0965 9.34494 
907 1 1 11.2308 36.3248 6.78478 
908 1 1 9.43397 35.752 8.82093 
909 1 1 9.9344 35.4525 8.19147 
910 1 1 10.3332 35.2794 7.38191 
911 1 1 10.7834 35.4709 6.76754 
912 1 1 10.5763 38.5913 1.46068 