ITEM: TIMESTEP
100000000
ITEM: NUMBER OF ATOMS
39148
ITEM: BOX BOUNDS pp pp pp
0 62
0 62
0 62
ITEM: ATOMS id mol type x y z 
1 1 1 57.9313 50.6055 46.194 
2 1 1 57.2922 50.0958 45.8072 
3 1 1 57.2841 50.2591 46.7771 
4 1 1 56.627 49.7509 46.4369 
5 1 1 58.0828 50.7506 47.1101 
6 1 1 56.7694 49.8766 47.4594 
7 1 1 55.9577 49.3572 47.2539 
8 1 1 58.1071 50.3333 45.3633 
9 1 1 57.458 49.6055 45.0317 
10 1 1 56.6616 49.4528 45.6072 
11 1 1 56.0298 49.1024 46.3005 
12 1 1 55.4601 48.6571 46.8271 
13 1 1 58.7943 50.8051 45.8484 
14 1 1 58.6656 50.9522 46.5629 
15 1 1 58.9016 51.066 47.353 
16 1 1 57.5829 50.2855 47.6926 
17 1 1 58.4285 50.7405 48.0852 
18 1 1 55.3855 48.7211 47.5935 
19 1 1 55.7205 48.976 48.3322 
20 1 1 56.3855 49.4603 48.2378 
21 1 1 57.1058 49.8909 48.4153 
22 1 1 59.5824 50.7451 45.6696 
23 1 1 58.8749 50.2924 44.9765 
24 1 1 58.2783 49.7029 44.624 
25 1 1 57.8328 49.0489 44.3681 
26 1 1 56.9063 48.8626 44.8464 
27 1 1 56.1763 48.5638 45.461 
28 1 1 54.9016 48.0564 47.5118 
29 1 1 55.5828 48.1649 45.9986 
30 1 1 55.0058 47.852 46.6828 
31 1 1 59.5836 51.0845 46.5999 
32 1 1 59.6291 51.2122 47.569 
33 1 1 59.2316 51.0169 48.2653 
34 1 1 58.0476 50.3449 48.7051 
35 1 1 58.9164 50.7651 48.9917 
36 1 1 55.1085 48.3439 48.2687 
37 1 1 55.4339 48.4869 49.0456 
38 1 1 54.6324 47.5796 48.1327 
39 1 1 56.1521 49.0197 49.1493 
40 1 1 56.8278 49.4448 49.1973 
41 1 1 57.63 49.9005 49.3664 
42 1 1 60.3527 50.8498 45.894 
43 1 1 60.2603 50.3413 45.1151 
44 1 1 59.6536 50.0756 44.7205 
45 1 1 59.0226 49.7002 44.3968 
46 1 1 58.7629 49.0068 44.0803 
47 1 1 58.3902 48.2998 43.8836 
48 1 1 57.4145 48.2315 44.2453 
49 1 1 56.4887 47.9342 44.7484 
50 1 1 55.8747 47.6309 45.2251 
51 1 1 54.6371 47.2593 47.2458 
52 1 1 55.2506 47.3078 45.9055 
53 1 1 54.8422 47.0271 46.5168 
54 1 1 60.5875 51.1141 46.5789 
55 1 1 61.2869 50.6716 46.0474 
56 1 1 60.4008 51.277 47.3725 
57 1 1 60.145 51.2078 48.2518 
58 1 1 61.2019 51.0963 47.3137 
59 1 1 59.7591 51.012 49.1131 
60 1 1 58.4341 50.252 49.7017 
61 1 1 59.3834 50.6329 49.8879 
62 1 1 55.8767 48.5217 49.7575 
63 1 1 54.9268 47.8026 48.9622 
64 1 1 55.3268 47.9322 49.76 
65 1 1 54.4727 46.6708 47.8266 
66 1 1 54.6196 46.9983 48.7657 
67 1 1 56.5091 48.9105 49.9561 
68 1 1 57.2337 49.3919 50.1609 
69 1 1 58.0777 49.7715 50.318 
70 1 1 60.9614 50.3577 45.3739 
71 1 1 60.6481 49.8013 44.7289 
72 1 1 59.8415 49.2166 44.1278 
73 1 1 59.395 48.3783 43.7461 
74 1 1 58.8866 47.6662 43.5889 
75 1 1 57.8553 47.521 43.7682 
76 1 1 56.9573 47.2709 44.1261 
77 1 1 56.1336 47.0199 44.6221 
78 1 1 55.6121 46.7193 45.3187 
79 1 1 54.6601 46.3927 46.9928 
80 1 1 55.1337 46.2878 46.0567 
81 1 1 54.5601 45.7995 47.6479 
82 1 1 61.8758 50.101 45.5639 
83 1 1 61.7069 50.8471 46.8073 
84 1 1 0.0459521 50.4408 46.2564 
85 1 1 61.0456 51.1209 48.0363 
86 1 1 60.7258 51.0956 48.9366 
87 1 1 61.8376 50.8502 47.7112 
88 1 1 60.3609 50.8041 49.854 
89 1 1 59.0112 50.1564 50.5598 
90 1 1 60.0854 50.4468 50.6313 
91 1 1 56.1 48.2034 50.5225 
92 1 1 54.9657 47.1873 49.6915 
93 1 1 55.5121 47.4148 50.4233 
94 1 1 54.5349 46.162 48.5685 
95 1 1 54.7802 46.3734 49.5079 
96 1 1 56.8451 48.7144 50.7799 
97 1 1 57.729 49.2118 50.9973 
98 1 1 58.6859 49.6341 51.147 
99 1 1 61.5579 49.652 44.9283 
100 1 1 60.9546 49.0234 44.2844 
101 1 1 60.4787 48.3588 43.8004 
102 1 1 60.0027 47.562 43.4847 
103 1 1 58.4316 47.012 43.4794 
104 1 1 59.1855 46.9165 43.3873 
105 1 1 57.6234 46.5012 43.6261 
106 1 1 56.554 46.3673 44.1429 
107 1 1 55.9041 46.1213 44.8007 
108 1 1 55.5638 45.861 45.4492 
109 1 1 54.6524 45.2327 48.3332 
110 1 1 54.9045 45.5826 46.7729 
111 1 1 55.3708 45.3265 45.9479 
112 1 1 54.7976 44.8799 47.4062 
113 1 1 0.622652 49.9127 46.1301 
114 1 1 0.454989 49.478 45.3127 
115 1 1 0.604222 50.3217 47.1281 
116 1 1 1.2883 49.6724 46.8569 
117 1 1 61.7802 50.8662 48.6374 
118 1 1 61.3949 50.8635 49.6038 
119 1 1 0.573411 50.4626 48.3191 
120 1 1 61.0607 50.6277 50.5159 
121 1 1 59.6895 49.9669 51.2927 
122 1 1 60.7778 50.2212 51.188 
123 1 1 56.6306 47.9904 51.401 
124 1 1 56.0832 47.5139 51.0729 
125 1 1 55.2825 46.5959 50.3779 
126 1 1 55.8386 46.8399 51.0914 
127 1 1 54.7046 45.4408 49.1949 
128 1 1 55.0012 45.6162 50.0224 
129 1 1 54.7849 44.5308 48.9499 
130 1 1 59.3338 49.3854 51.8362 
131 1 1 57.3609 48.5425 51.5864 
132 1 1 58.5138 48.9083 51.9458 
133 1 1 0.0389454 48.8728 44.6167 
134 1 1 61.4373 48.3038 44.0441 
135 1 1 59.9566 46.747 43.2496 
136 1 1 61.0123 47.6306 43.6412 
137 1 1 60.6919 46.9312 43.3298 
138 1 1 58.6252 46.2023 43.3382 
139 1 1 59.4793 46.0858 43.2152 
140 1 1 58.0001 45.4951 43.5082 
141 1 1 57.0374 45.673 43.9232 
142 1 1 56.3354 45.6142 44.486 
143 1 1 55.9413 45.079 45.1619 
144 1 1 54.8126 44.3049 48.0328 
145 1 1 55.1767 44.7479 46.5321 
146 1 1 55.5504 44.5644 45.8733 
147 1 1 55.0663 43.9949 47.2878 
148 1 1 1.26116 49.238 46.0387 
149 1 1 0.873959 48.7523 45.1356 
150 1 1 1.28905 49.8712 47.9422 
151 1 1 1.80171 48.9457 46.6295 
152 1 1 1.87868 49.1952 47.6547 
153 1 1 0.366368 50.4767 49.3799 
154 1 1 -0.00216196 50.482 50.2762 
155 1 1 1.13027 49.9694 48.9633 
156 1 1 61.6482 50.1587 51.1624 
157 1 1 60.3476 49.6419 51.8419 
158 1 1 61.1823 49.7496 51.6919 
159 1 1 57.1176 47.8551 52.0049 
160 1 1 56.5314 47.0908 51.7434 
161 1 1 56.048 46.2272 51.5529 
162 1 1 55.5296 45.8896 50.9382 
163 1 1 54.8468 44.7679 49.8451 
164 1 1 55.184 45.0119 50.5615 
165 1 1 54.8678 43.6682 48.8541 
166 1 1 54.8869 43.9982 49.6122 
167 1 1 59.3116 48.8286 52.4097 
168 1 1 60.0453 49.0835 52.3537 
169 1 1 57.8434 48.0918 52.3415 
170 1 1 58.779 48.2377 52.6703 
171 1 1 0.452963 48.0243 44.4253 
172 1 1 62.0079 47.4938 43.9504 
173 1 1 60.3248 46.0921 43.2445 
174 1 1 61.577 46.7804 43.5835 
175 1 1 61.0846 46.1952 43.3851 
176 1 1 59.9643 45.3628 43.2643 
177 1 1 58.9799 45.4152 43.3313 
178 1 1 58.4376 44.7296 43.5732 
179 1 1 57.4762 44.8332 43.9822 
180 1 1 56.789 44.9439 44.4744 
181 1 1 56.4845 44.3423 44.9594 
182 1 1 56.0208 44.0295 45.4722 
183 1 1 55.0064 43.1977 48.077 
184 1 1 54.9374 42.8855 48.9387 
185 1 1 55.444 43.8054 46.3848 
186 1 1 55.2646 43.2276 47.2551 
187 1 1 1.60213 48.4361 45.7547 
188 1 1 1.31381 47.8613 45.0407 
189 1 1 1.73822 49.4206 48.6522 
190 1 1 2.26931 48.7852 48.5861 
191 1 1 2.12407 48.1928 46.369 
192 1 1 2.28175 48.4235 47.0871 
193 1 1 2.40008 48.4979 47.896 
194 1 1 0.853984 50.0779 50.0703 
195 1 1 0.522913 49.7788 50.9498 
196 1 1 1.50959 49.4915 49.7313 
197 1 1 61.913 49.3215 51.8105 
198 1 1 61.0176 49.1348 52.2423 
199 1 1 57.4151 47.2893 52.3918 
200 1 1 57.1531 46.5787 52.3653 
201 1 1 56.5859 46.1164 52.0707 
202 1 1 56.026 45.46 51.7867 
203 1 1 55.5247 44.739 51.3582 
204 1 1 55.1618 44.0459 50.6347 
205 1 1 54.9346 43.1547 49.9045 
206 1 1 59.7117 48.3595 52.8691 
207 1 1 60.6553 48.5081 52.8135 
208 1 1 58.2738 47.5218 52.8084 
209 1 1 59.1831 47.6414 53.0924 
210 1 1 0.881352 47.1587 44.3993 
211 1 1 0.401177 46.5794 43.9813 
212 1 1 60.8865 45.4464 43.3531 
213 1 1 61.8244 45.7342 43.6365 
214 1 1 60.4781 44.6966 43.4297 
215 1 1 59.456 44.6519 43.4678 
216 1 1 55.0602 42.1387 49.3535 
217 1 1 55.1613 42.2485 48.422 
218 1 1 59.0394 43.9667 43.7971 
219 1 1 58.138 44.0004 44.0106 
220 1 1 57.1749 44.0321 44.5346 
221 1 1 56.652 43.4619 45.2301 
222 1 1 56.0935 43.1516 45.9219 
223 1 1 55.312 42.4774 47.5696 
224 1 1 55.6086 42.7459 46.706 
225 1 1 1.54632 46.8859 44.9333 
226 1 1 2.07647 47.4766 45.7916 
227 1 1 2.08874 48.8916 49.4615 
228 1 1 2.48162 48.2579 49.1921 
229 1 1 2.64758 48.0303 48.4697 
230 1 1 2.54637 47.6319 46.7691 
231 1 1 2.66568 47.8188 47.6383 
232 1 1 1.27084 49.2925 50.5935 
233 1 1 0.881114 48.9252 51.4723 
234 1 1 1.86262 48.7201 50.3872 
235 1 1 0.517056 48.4309 52.1147 
236 1 1 61.6248 48.5231 52.5649 
237 1 1 57.8356 46.7351 52.8006 
238 1 1 57.3638 45.8249 52.713 
239 1 1 56.5877 45.1765 52.4359 
240 1 1 55.9879 44.4907 52.0859 
241 1 1 55.5519 43.7631 51.5486 
242 1 1 55.2865 42.9864 50.9632 
243 1 1 55.142 42.1785 50.2189 
244 1 1 60.217 47.7892 53.1788 
245 1 1 61.2221 47.8375 53.0012 
246 1 1 58.7643 46.8528 53.2174 
247 1 1 59.7296 47.0126 53.4153 
248 1 1 1.06003 46.2312 44.4534 
249 1 1 0.637339 45.7102 44.0823 
250 1 1 61.4645 44.853 43.6147 
251 1 1 0.345015 44.9841 44.0049 
252 1 1 61.0291 44.0687 43.8155 
253 1 1 60.0713 43.9492 43.7205 
254 1 1 55.2613 41.1912 49.6655 
255 1 1 55.2783 41.3504 48.7934 
256 1 1 55.4067 41.5263 47.8743 
257 1 1 59.4954 43.2837 44.0604 
258 1 1 58.63 43.1841 44.1805 
259 1 1 57.8872 43.2927 44.3957 
260 1 1 57.3482 42.8596 44.91 
261 1 1 56.7578 42.5255 45.5129 
262 1 1 56.1994 42.1998 46.2128 
263 1 1 55.7045 41.8839 46.9764 
264 1 1 1.58572 46.0111 44.97 
265 1 1 2.04583 46.4139 45.5055 
266 1 1 2.55572 46.7929 46.3989 
267 1 1 2.35163 47.9782 50.0556 
268 1 1 2.79652 47.4643 49.1571 
269 1 1 2.90037 47.2839 48.3029 
270 1 1 2.81693 47.037 47.3189 
271 1 1 1.53592 48.4981 51.0997 
272 1 1 1.19374 48.1869 51.7402 
273 1 1 1.97234 47.9184 50.897 
274 1 1 0.916631 47.6543 52.2206 
275 1 1 0.147839 47.7042 52.6805 
276 1 1 58.322 46.0955 53.2196 
277 1 1 58.0643 45.3459 53.3694 
278 1 1 57.3276 44.8613 53.1346 
279 1 1 56.7411 44.254 52.8207 
280 1 1 56.1001 43.6551 52.4167 
281 1 1 55.6855 42.8854 51.9139 
282 1 1 55.3675 42.1671 51.1708 
283 1 1 55.347 41.2874 50.5679 
284 1 1 60.7032 47.0778 53.4101 
285 1 1 61.5967 47.0071 53.1415 
286 1 1 59.2738 46.2137 53.6037 
287 1 1 60.2911 46.4096 53.6327 
288 1 1 1.16543 45.2329 44.6501 
289 1 1 61.9747 44.2305 44.0338 
290 1 1 0.653752 44.4374 44.4546 
291 1 1 55.4148 40.3823 49.9474 
292 1 1 61.4493 43.3426 44.1809 
293 1 1 60.5593 43.2585 43.9991 
294 1 1 55.4621 40.458 49.0292 
295 1 1 55.5306 40.6416 48.0872 
296 1 1 55.7098 40.9367 47.2684 
297 1 1 60.0288 42.5956 44.2497 
298 1 1 59.1746 42.5764 44.3085 
299 1 1 58.2469 42.3304 44.6286 
300 1 1 57.4617 41.9495 45.2 
301 1 1 56.8333 41.5827 45.7954 
302 1 1 56.188 41.2452 46.5219 
303 1 1 2.77167 46.1962 47.0733 
304 1 1 1.85547 45.5342 45.483 
305 1 1 2.39109 45.9052 46.1872 
306 1 1 2.29508 47.2294 50.7565 
307 1 1 2.68399 47.0245 49.9129 
308 1 1 2.92103 46.681 48.9443 
309 1 1 2.92732 46.3925 48.0065 
310 1 1 1.65451 47.4552 51.576 
311 1 1 1.15448 46.8445 52.2056 
312 1 1 0.479926 46.8137 52.7495 
313 1 1 58.8548 45.3727 53.7566 
314 1 1 58.0638 44.6376 53.7289 
315 1 1 57.4348 43.9997 53.5241 
316 1 1 56.7311 43.3122 53.0866 
317 1 1 56.2217 42.6785 52.6972 
318 1 1 55.8206 41.9311 52.093 
319 1 1 55.574 41.1741 51.4287 
320 1 1 55.532 40.2711 50.8845 
321 1 1 61.1949 46.3223 53.5556 
322 1 1 61.9095 46.2286 53.2775 
323 1 1 59.9033 45.6488 53.8689 
324 1 1 60.7065 45.7189 53.8563 
325 1 1 1.63476 44.7543 45.3868 
326 1 1 1.20469 44.2545 45.0057 
327 1 1 0.426089 43.5598 44.5958 
328 1 1 61.8337 42.7591 44.536 
329 1 1 55.5774 39.4544 50.1848 
330 1 1 55.4942 39.5461 49.2579 
331 1 1 61.0099 42.4523 44.3562 
332 1 1 55.6517 39.6534 48.3018 
333 1 1 55.8818 39.9431 47.4567 
334 1 1 56.2687 40.2787 46.6591 
335 1 1 60.2933 41.8569 44.544 
336 1 1 59.3648 41.7376 44.5744 
337 1 1 58.3861 41.3939 44.8973 
338 1 1 57.5697 41.1159 45.407 
339 1 1 56.9495 40.665 45.9642 
340 1 1 2.13287 46.6482 51.2169 
341 1 1 2.8787 45.5473 47.8154 
342 1 1 2.57375 45.3127 46.912 
343 1 1 2.10282 44.8849 46.1334 
344 1 1 2.51999 46.4226 50.5965 
345 1 1 2.84231 46.1812 49.6327 
346 1 1 2.95809 45.7721 48.7327 
347 1 1 2.97853 44.9725 48.5107 
348 1 1 1.67597 46.388 51.8373 
349 1 1 1.09764 46.1155 52.464 
350 1 1 0.549393 45.6356 53.1492 
351 1 1 59.6032 44.9523 54.094 
352 1 1 58.8713 44.4587 54.2005 
353 1 1 58.1841 43.7522 54.1066 
354 1 1 57.5015 43.1132 53.8378 
355 1 1 56.891 42.4019 53.4392 
356 1 1 56.3083 41.7184 52.8903 
357 1 1 56.002 41.0127 52.3267 
358 1 1 55.7836 40.158 51.7603 
359 1 1 55.719 39.2506 51.1164 
360 1 1 61.5765 45.3787 53.6652 
361 1 1 60.5866 44.8042 54.1211 
362 1 1 1.56929 43.9734 45.7217 
363 1 1 1.08091 43.3644 45.2926 
364 1 1 0.544143 42.5599 45.0933 
365 1 1 61.8163 41.994 44.825 
366 1 1 55.8142 38.4284 50.4385 
367 1 1 55.6099 38.5102 49.6149 
368 1 1 55.6684 38.6497 48.6407 
369 1 1 61.0195 41.5319 44.7802 
370 1 1 55.8875 38.9713 47.7216 
371 1 1 56.3581 39.2782 46.8726 
372 1 1 56.8894 39.6984 46.2061 
373 1 1 60.1888 41.1274 44.8462 
374 1 1 59.2945 40.7714 44.9574 
375 1 1 58.4177 40.4205 45.171 
376 1 1 57.6412 40.0495 45.668 
377 1 1 2.23955 45.769 51.2608 
378 1 1 2.81151 44.6863 47.6886 
379 1 1 2.48954 44.4884 46.999 
380 1 1 2.0872 43.7728 46.5285 
381 1 1 2.74195 45.5432 50.3419 
382 1 1 2.97452 45.2353 49.5456 
383 1 1 3.04112 44.3959 49.2448 
384 1 1 2.96743 44.1951 48.3816 
385 1 1 1.61007 45.4868 52.0875 
386 1 1 1.16228 45.1001 52.8408 
387 1 1 0.380358 44.8115 53.4684 
388 1 1 59.8109 44.2256 54.4643 
389 1 1 59.0657 43.603 54.5488 
390 1 1 58.2905 42.9297 54.4788 
391 1 1 57.5988 42.2387 54.1396 
392 1 1 56.9813 41.5324 53.7335 
393 1 1 56.4919 40.7517 53.2216 
394 1 1 56.2113 40.042 52.6747 
395 1 1 56.0958 39.1871 52.0582 
396 1 1 56.0324 38.3804 51.3317 
397 1 1 61.6086 44.3139 54.0283 
398 1 1 60.8183 43.8203 54.4702 
399 1 1 1.72963 43.061 46.2013 
400 1 1 1.20141 42.427 45.7643 
401 1 1 0.591724 41.7752 45.4546 
402 1 1 56.171 37.5038 50.7205 
403 1 1 61.8678 41.1523 45.2182 
404 1 1 55.9252 37.5652 49.7772 
405 1 1 55.7724 37.7849 48.8872 
406 1 1 55.9519 38.0013 47.9595 
407 1 1 61.0205 40.6919 45.0533 
408 1 1 56.3759 38.2854 47.1475 
409 1 1 56.9758 38.6559 46.447 
410 1 1 57.6548 39.0989 45.8805 
411 1 1 60.219 40.2017 45.0959 
412 1 1 59.3564 39.8476 45.1692 
413 1 1 58.5161 39.3939 45.3927 
414 1 1 2.62258 44.8885 50.8779 
415 1 1 2.26606 44.74 51.6652 
416 1 1 2.67869 43.6912 47.551 
417 1 1 2.24589 42.9145 47.0761 
418 1 1 2.86133 44.4885 50.2269 
419 1 1 3.02798 43.735 49.7148 
420 1 1 2.94154 43.3785 48.7049 
421 1 1 1.78064 44.5745 52.4077 
422 1 1 1.15484 44.2349 53.1649 
423 1 1 0.447267 43.8957 53.7643 
424 1 1 59.9888 43.3615 54.7411 
425 1 1 59.2295 42.7501 54.7897 
426 1 1 58.4592 42.059 54.7299 
427 1 1 57.7412 41.3305 54.41 
428 1 1 57.0717 40.5612 54.0021 
429 1 1 56.4196 37.5252 51.6078 
430 1 1 56.7356 39.848 53.5216 
431 1 1 56.5687 39.0398 52.9097 
432 1 1 56.4294 38.2084 52.2676 
433 1 1 61.7166 43.4449 54.3122 
434 1 1 60.9163 42.9099 54.7669 
435 1 1 1.79698 42.2249 46.5734 
436 1 1 1.27299 41.5082 46.1551 
437 1 1 0.6404 40.894 45.7905 
438 1 1 56.4891 36.5849 50.9873 
439 1 1 56.1985 36.6946 50.0113 
440 1 1 61.9175 40.2764 45.578 
441 1 1 56.0334 36.7971 49.1058 
442 1 1 56.0761 37.068 48.1275 
443 1 1 56.4892 37.3483 47.3145 
444 1 1 61.1215 39.7737 45.3573 
445 1 1 57.0003 37.7162 46.5715 
446 1 1 57.7052 38.098 45.9982 
447 1 1 58.5285 38.4356 45.5421 
448 1 1 60.2473 39.2624 45.2895 
449 1 1 59.3854 38.8939 45.3661 
450 1 1 2.63834 44.0961 51.144 
451 1 1 2.28173 43.8771 52.0302 
452 1 1 2.68394 42.6657 47.9775 
453 1 1 2.29365 42.0385 47.3589 
454 1 1 2.94059 43.4664 50.4934 
455 1 1 3.10607 42.9278 49.7279 
456 1 1 3.05732 42.4273 48.9436 
457 1 1 1.75623 43.6616 52.7625 
458 1 1 1.14007 43.2557 53.4408 
459 1 1 0.548579 42.9345 54.0239 
460 1 1 60.1072 42.3792 54.9818 
461 1 1 59.2736 41.7222 55.1106 
462 1 1 58.46 41.1128 54.9776 
463 1 1 57.7937 40.4177 54.754 
464 1 1 57.3021 39.6572 54.3829 
465 1 1 56.7088 36.6054 51.8467 
466 1 1 56.7521 37.3177 52.5184 
467 1 1 56.9621 38.9452 53.7507 
468 1 1 56.8335 38.1115 53.2039 
469 1 1 61.8021 42.4733 54.6047 
470 1 1 61.0074 42.036 54.986 
471 1 1 1.91922 41.3152 46.9361 
472 1 1 1.39267 40.6502 46.5281 
473 1 1 0.649024 39.9771 46.1453 
474 1 1 56.6877 35.6768 51.327 
475 1 1 56.5065 35.7525 50.3845 
476 1 1 56.3248 35.8134 49.3465 
477 1 1 61.9521 39.4249 45.8217 
478 1 1 56.2461 36.1241 48.4694 
479 1 1 56.6064 36.4171 47.6037 
480 1 1 57.1337 36.7597 46.8827 
481 1 1 61.0824 38.8431 45.5969 
482 1 1 57.8173 37.1571 46.3212 
483 1 1 58.5991 37.461 45.8389 
484 1 1 59.3909 37.8724 45.5694 
485 1 1 60.2526 38.2985 45.5456 
486 1 1 2.71764 43.243 51.3916 
487 1 1 2.35229 43.0538 52.1853 
488 1 1 2.71218 41.7553 48.2948 
489 1 1 2.34525 41.0029 47.7835 
490 1 1 3.06788 42.5637 50.6202 
491 1 1 3.271 41.9749 49.8503 
492 1 1 3.09349 41.4837 49.1979 
493 1 1 1.82928 42.7456 52.9582 
494 1 1 1.31327 42.3498 53.6481 
495 1 1 0.737988 42.0136 54.2311 
496 1 1 56.9383 35.662 52.2128 
497 1 1 60.1739 41.4308 55.2816 
498 1 1 59.398 40.7964 55.4058 
499 1 1 58.5671 40.2019 55.384 
500 1 1 58.0376 39.4759 55.1073 
501 1 1 57.4989 38.796 54.5623 
502 1 1 57.001 36.4003 52.8188 
503 1 1 57.1213 37.2675 53.4834 
504 1 1 57.2576 38.013 54.0529 
505 1 1 61.8982 41.5701 54.7932 
506 1 1 61.126 41.1423 55.2474 
507 1 1 56.819 34.7725 51.676 
508 1 1 1.8788 40.3575 47.2742 
509 1 1 1.29527 39.6509 46.836 
510 1 1 0.615704 39.0428 46.4262 
511 1 1 56.6892 34.832 50.7199 
512 1 1 56.562 34.9789 49.6717 
513 1 1 56.5276 35.1879 48.679 
514 1 1 61.8627 38.414 46.0454 
515 1 1 56.7925 35.435 47.9065 
516 1 1 57.2566 35.7474 47.2188 
517 1 1 57.9541 36.1334 46.6171 
518 1 1 61.0853 37.8181 45.8328 
519 1 1 58.7271 36.5352 46.1704 
520 1 1 59.5142 36.9646 45.9261 
521 1 1 60.3467 37.3137 45.8511 
522 1 1 2.82787 42.3702 51.5707 
523 1 1 2.46989 42.1398 52.3997 
524 1 1 2.81807 40.7209 48.6249 
525 1 1 2.38224 40.0142 48.0504 
526 1 1 3.21074 41.6721 50.8517 
527 1 1 3.32947 41.0189 50.1956 
528 1 1 3.16497 40.4471 49.5244 
529 1 1 1.95596 41.7851 53.2115 
530 1 1 1.43195 41.4218 53.9302 
531 1 1 0.813138 41.0703 54.507 
532 1 1 57.0183 34.7227 52.57 
533 1 1 57.121 35.5521 53.1592 
534 1 1 60.3253 40.5527 55.6403 
535 1 1 59.5634 39.966 55.762 
536 1 1 58.7726 39.3279 55.7668 
537 1 1 58.2375 38.5262 55.4469 
538 1 1 57.7792 37.8521 54.9173 
539 1 1 57.3634 36.3376 53.8684 
540 1 1 57.5278 37.0389 54.4069 
541 1 1 61.9866 40.6628 55.1132 
542 1 1 61.2414 40.1786 55.638 
543 1 1 56.8868 33.9053 51.9714 
544 1 1 56.7668 33.9239 51.0241 
545 1 1 1.92761 39.3311 47.568 
546 1 1 1.27977 38.7295 47.1148 
547 1 1 0.60672 38.1234 46.5992 
548 1 1 56.6747 34.1144 50.0231 
549 1 1 56.6894 34.2126 49.0775 
550 1 1 56.9568 34.4119 48.1877 
551 1 1 61.9462 37.4714 46.3001 
552 1 1 57.4575 34.7661 47.4973 
553 1 1 58.1024 35.1735 46.9342 
554 1 1 58.8456 35.5505 46.4874 
555 1 1 61.2128 36.8995 46.2133 
556 1 1 59.6143 35.9962 46.2703 
557 1 1 60.4171 36.4471 46.1538 
558 1 1 2.9246 41.434 51.8008 
559 1 1 2.57728 41.1544 52.7308 
560 1 1 2.92927 39.7796 48.9461 
561 1 1 2.41302 39.1012 48.3865 
562 1 1 3.25589 40.7243 51.1424 
563 1 1 3.39595 40.0991 50.4299 
564 1 1 3.27602 39.3858 49.9043 
565 1 1 2.11861 40.8523 53.5365 
566 1 1 1.57714 40.4838 54.2548 
567 1 1 0.854713 40.1349 54.8406 
568 1 1 57.0704 33.7848 52.8154 
569 1 1 57.2723 34.6327 53.4449 
570 1 1 57.5134 35.4229 54.1683 
571 1 1 60.4861 39.7028 56.0147 
572 1 1 59.6522 39.0725 56.1806 
573 1 1 58.985 38.3859 56.0632 
574 1 1 58.4189 37.6385 55.7191 
575 1 1 58.041 36.9214 55.3275 
576 1 1 57.7226 36.1737 54.7516 
577 1 1 0.0641515 39.7499 55.4998 
578 1 1 61.2962 39.249 56.0096 
579 1 1 56.8839 32.9978 52.1596 
580 1 1 56.7829 32.9639 51.3037 
581 1 1 56.758 33.2017 50.3408 
582 1 1 1.88428 38.3772 47.833 
583 1 1 1.33984 37.7789 47.347 
584 1 1 0.694814 37.1225 46.9032 
585 1 1 56.8021 33.3033 49.3688 
586 1 1 57.1322 33.4 48.4679 
587 1 1 57.6181 33.7762 47.7241 
588 1 1 0.0607546 36.4669 46.7077 
589 1 1 58.2421 34.0845 47.2087 
590 1 1 58.9326 34.549 46.7032 
591 1 1 59.7321 34.9969 46.5648 
592 1 1 61.3197 35.9109 46.5429 
593 1 1 60.4802 35.4714 46.4704 
594 1 1 3.01935 40.5348 52.1725 
595 1 1 2.65688 40.2112 53.1033 
596 1 1 2.8807 38.7962 49.3157 
597 1 1 2.40183 38.0785 48.6535 
598 1 1 3.38302 39.8565 51.4647 
599 1 1 3.44078 39.1877 50.9413 
600 1 1 3.26758 38.4956 50.2735 
601 1 1 2.17646 39.8306 53.9117 
602 1 1 1.60492 39.4931 54.622 
603 1 1 0.886505 39.2285 55.2549 
604 1 1 57.0199 32.8431 53.0696 
605 1 1 56.8391 32.0428 52.6099 
606 1 1 56.8862 31.904 53.468 
607 1 1 57.2695 33.6605 53.6973 
608 1 1 57.5806 34.5368 54.4728 
609 1 1 57.8627 35.2958 55.1554 
610 1 1 60.5372 38.7393 56.3809 
611 1 1 59.7824 38.118 56.567 
612 1 1 59.0976 37.4185 56.4748 
613 1 1 58.5801 36.6867 56.1635 
614 1 1 58.2017 35.9778 55.67 
615 1 1 0.11679 38.8209 55.8858 
616 1 1 61.3941 38.3288 56.4496 
617 1 1 56.7884 32.0627 51.6887 
618 1 1 56.7075 32.2346 50.6406 
619 1 1 56.86 32.3992 49.6878 
620 1 1 1.84183 37.4378 48.0842 
621 1 1 1.30836 36.8203 47.6138 
622 1 1 0.766847 36.1162 47.2428 
623 1 1 57.2003 32.578 48.7761 
624 1 1 57.6928 32.7713 48.0328 
625 1 1 58.3462 33.1401 47.42 
626 1 1 0.109712 35.4726 47.0322 
627 1 1 59.1006 33.5559 46.9584 
628 1 1 59.9133 34.0266 46.7622 
629 1 1 60.5911 34.5164 46.7059 
630 1 1 61.3271 34.9854 46.8345 
631 1 1 56.63 31.1098 51.9864 
632 1 1 56.5699 30.9358 52.963 
633 1 1 3.11599 39.6088 52.4454 
634 1 1 2.74015 39.2416 53.4192 
635 1 1 2.87178 37.8931 49.6035 
636 1 1 2.34253 37.2187 48.9003 
637 1 1 3.32878 38.8409 51.9375 
638 1 1 3.49378 38.2089 51.2229 
639 1 1 3.23979 37.5924 50.4865 
640 1 1 2.28579 38.879 54.2427 
641 1 1 1.60369 38.5866 55.005 
642 1 1 0.926738 38.3045 55.7034 
643 1 1 57.1903 32.6876 53.9945 
644 1 1 56.7438 31.1189 53.9661 
645 1 1 57.0967 31.8722 54.3936 
646 1 1 57.4916 33.5209 54.6112 
647 1 1 57.8559 34.2886 55.2756 
648 1 1 58.2049 35.0435 55.9736 
649 1 1 60.6854 37.8383 56.73 
650 1 1 59.9222 37.2177 56.9371 
651 1 1 59.2292 36.4802 56.8388 
652 1 1 58.7529 35.7346 56.5046 
653 1 1 0.248224 37.8959 56.3348 
654 1 1 61.4887 37.3317 56.8268 
655 1 1 56.6169 31.3056 51.0095 
656 1 1 56.7989 31.4288 50.0567 
657 1 1 57.1996 31.6718 49.1427 
658 1 1 1.89794 36.5273 48.4112 
659 1 1 1.41357 35.8176 47.9264 
660 1 1 0.843189 35.1208 47.6268 
661 1 1 57.7046 31.9045 48.4141 
662 1 1 58.3648 32.1798 47.8011 
663 1 1 59.2094 32.5986 47.3213 
664 1 1 0.166919 34.4984 47.3487 
665 1 1 59.9373 32.9609 47.1094 
666 1 1 60.6028 33.5108 47.037 
667 1 1 61.3841 33.9567 47.1614 
668 1 1 56.4709 30.347 51.3408 
669 1 1 56.3428 30.1474 52.38 
670 1 1 56.3981 30.3934 53.6721 
671 1 1 56.5119 30.511 54.4444 
672 1 1 56.2194 29.885 53.1219 
673 1 1 3.10473 38.5773 52.8171 
674 1 1 2.79789 38.2676 53.7678 
675 1 1 2.77424 36.9568 49.7982 
676 1 1 2.35303 36.2345 49.2471 
677 1 1 3.38075 37.8854 52.1523 
678 1 1 3.51658 37.2174 51.44 
679 1 1 3.22346 36.687 50.7114 
680 1 1 2.26885 38.0108 54.6035 
681 1 1 1.65698 37.707 55.3737 
682 1 1 0.993823 37.3312 56.0676 
683 1 1 57.3965 32.5867 54.9747 
684 1 1 56.8585 31.0993 54.866 
685 1 1 57.2394 31.7509 55.4082 
686 1 1 57.7566 33.3324 55.5164 
687 1 1 58.2738 34.0886 56.1292 
688 1 1 58.7178 34.7667 56.733 
689 1 1 60.7086 36.7898 57.1818 
690 1 1 59.9389 36.1639 57.3094 
691 1 1 59.2979 35.4356 57.1417 
692 1 1 0.229086 36.9432 56.6886 
693 1 1 61.5774 36.3886 57.2258 
694 1 1 56.654 30.5513 50.4106 
695 1 1 57.137 30.7333 49.501 
696 1 1 57.7005 31.0161 48.7818 
697 1 1 1.87188 35.5372 48.7339 
698 1 1 1.44858 34.8738 48.2843 
699 1 1 0.908541 34.156 47.968 
700 1 1 58.4279 31.2859 48.1221 
701 1 1 59.2644 31.5917 47.6463 
702 1 1 60.017 31.973 47.4444 
703 1 1 0.244166 33.4956 47.6507 
704 1 1 60.6928 32.5009 47.355 
705 1 1 61.4807 32.9223 47.4289 
706 1 1 56.5593 29.5183 50.7185 
707 1 1 56.3206 29.4176 51.6866 
708 1 1 56.1483 29.0892 52.6303 
709 1 1 56.5733 30.2024 55.3496 
710 1 1 56.2006 29.7626 54.2779 
711 1 1 56.0764 29.2383 53.5753 
712 1 1 3.09562 37.5446 53.1698 
713 1 1 2.71232 37.3006 54.1256 
714 1 1 2.89186 36.0363 50.1572 
715 1 1 2.46075 35.2976 49.4485 
716 1 1 3.33423 36.9039 52.4621 
717 1 1 3.45443 36.3048 51.7005 
718 1 1 3.26464 35.7095 51.0467 
719 1 1 2.27665 37.1396 54.9901 
720 1 1 1.70944 36.8197 55.7504 
721 1 1 1.04107 36.4664 56.4094 
722 1 1 57.5954 32.4209 55.89 
723 1 1 57.0718 30.9728 55.8795 
724 1 1 57.4996 31.5408 56.4337 
725 1 1 58.1013 33.183 56.4301 
726 1 1 58.6949 33.7905 56.9483 
727 1 1 59.3585 34.4828 57.3794 
728 1 1 60.8124 35.8469 57.5304 
729 1 1 60.0873 35.1585 57.6177 
730 1 1 0.339492 35.9339 57.0497 
731 1 1 61.6191 35.472 57.6232 
732 1 1 57.0369 29.8012 49.9018 
733 1 1 57.6356 30.0925 49.1947 
734 1 1 58.384 30.3319 48.6284 
735 1 1 2.05789 34.651 49.0244 
736 1 1 1.62538 33.8846 48.6136 
737 1 1 1.05252 33.2195 48.2684 
738 1 1 59.2922 30.6614 48.1117 
739 1 1 60.0744 31.0184 47.8205 
740 1 1 60.8748 31.5183 47.7398 
741 1 1 0.384319 32.5701 47.9928 
742 1 1 61.5796 32.0283 47.7898 
743 1 1 56.4996 28.5768 51.1192 
744 1 1 56.9617 28.8396 50.2779 
745 1 1 56.2618 28.3553 51.9179 
746 1 1 56.5347 27.6019 51.423 
747 1 1 56.9517 30.2369 56.1909 
748 1 1 56.0656 28.1167 52.7047 
749 1 1 56.6786 29.4459 56.1001 
750 1 1 56.0159 28.4869 53.4074 
751 1 1 56.2854 29.2124 55.1492 
752 1 1 56.042 28.8266 54.2839 
753 1 1 3.03921 36.6966 53.4495 
754 1 1 2.71364 36.4659 54.4784 
755 1 1 2.96918 35.0866 50.4055 
756 1 1 2.56577 34.3196 49.7921 
757 1 1 3.26245 36.0021 52.845 
758 1 1 3.48946 35.4111 52.0752 
759 1 1 3.36703 34.7555 51.4107 
760 1 1 2.29264 36.2114 55.3144 
761 1 1 1.70906 35.8879 56.0872 
762 1 1 1.1986 35.399 56.7667 
763 1 1 57.9288 32.2296 56.7756 
764 1 1 57.3419 30.6311 56.7504 
765 1 1 57.9154 31.2465 57.1917 
766 1 1 58.6345 32.8613 57.204 
767 1 1 59.3524 33.5566 57.5517 
768 1 1 60.1909 34.1907 57.8623 
769 1 1 60.9381 34.887 57.8634 
770 1 1 0.471612 35.0235 57.4033 
771 1 1 61.7469 34.4192 57.944 
772 1 1 57.6178 29.0973 49.5868 
773 1 1 58.3331 29.4398 49.024 
774 1 1 59.1396 29.8866 48.5482 
775 1 1 2.23975 33.5961 49.3673 
776 1 1 1.76394 32.9108 48.9514 
777 1 1 1.1357 32.2845 48.5416 
778 1 1 60.0784 30.08 48.2581 
779 1 1 60.8626 30.5126 48.082 
780 1 1 61.6326 30.9842 48.1446 
781 1 1 0.41252 31.6096 48.2816 
782 1 1 59.8225 29.2752 48.6304 
783 1 1 56.8917 27.8835 50.6588 
784 1 1 57.5085 28.1497 49.9762 
785 1 1 56.1852 27.2831 52.2743 
786 1 1 56.9962 26.9454 51.0007 
787 1 1 56.5188 26.8146 51.6708 
788 1 1 56.3588 26.2836 52.258 
789 1 1 57.2244 29.6741 57.0634 
790 1 1 56.8276 28.7435 56.7823 
791 1 1 55.9338 27.5654 53.2865 
792 1 1 56.3801 28.5684 55.8433 
793 1 1 55.9106 27.9301 54.1701 
794 1 1 56.116 28.2581 55.0186 
795 1 1 3.01169 35.7855 53.867 
796 1 1 2.70859 35.5026 54.7696 
797 1 1 3.12075 34.1011 50.7906 
798 1 1 2.73761 33.3988 50.1979 
799 1 1 3.32766 35.2154 53.0874 
800 1 1 3.51547 34.4479 52.3618 
801 1 1 3.44548 33.7771 51.6456 
802 1 1 2.34595 35.2544 55.591 
803 1 1 1.96548 34.7705 56.3558 
804 1 1 1.30531 34.4933 57.0316 
805 1 1 58.5064 31.9006 57.5183 
806 1 1 57.9212 30.3356 57.5417 
807 1 1 58.5152 30.9228 57.847 
808 1 1 59.2532 32.5207 57.7876 
809 1 1 60.1363 33.1936 57.9894 
810 1 1 60.9869 33.8218 58.1017 
811 1 1 0.569477 34.0588 57.6163 
812 1 1 61.8332 33.5205 58.0892 
813 1 1 58.2209 28.5392 49.4426 
814 1 1 59.0269 28.9237 48.8988 
815 1 1 2.38201 32.6478 49.6894 
816 1 1 1.80239 31.9273 49.199 
817 1 1 1.18618 31.2877 48.8366 
818 1 1 60.8862 29.3551 48.6186 
819 1 1 61.6724 29.9441 48.4624 
820 1 1 0.347994 30.6641 48.5443 
821 1 1 59.6404 28.4873 48.8806 
822 1 1 60.3421 28.7088 48.8016 
823 1 1 58.1936 27.7918 49.708 
824 1 1 57.6993 27.1393 50.2513 
825 1 1 57.4952 26.3952 50.7769 
826 1 1 56.0393 26.5965 53.1498 
827 1 1 57.0104 25.9816 51.4781 
828 1 1 56.5926 25.5413 52.1987 
829 1 1 56.2572 25.6658 52.9207 
830 1 1 57.7333 29.4433 57.8586 
831 1 1 57.2026 28.9213 57.4794 
832 1 1 56.9818 28.2115 57.4844 
833 1 1 56.536 27.97 56.6485 
834 1 1 55.8999 26.9887 53.9929 
835 1 1 56.1994 27.7002 55.7721 
836 1 1 55.9442 27.2818 54.9191 
837 1 1 3.12456 34.8502 54.0087 
838 1 1 2.79672 34.5295 54.9629 
839 1 1 3.24066 33.0994 51.0717 
840 1 1 2.88871 32.3101 50.421 
841 1 1 3.42783 34.229 53.3139 
842 1 1 3.60292 33.5327 52.6484 
843 1 1 3.57935 32.8061 52.0165 
844 1 1 2.47034 34.2813 55.7885 
845 1 1 2.00096 33.8462 56.6289 
846 1 1 1.40043 33.5167 57.248 
847 1 1 59.3121 31.5291 58.0849 
848 1 1 58.4034 29.9999 58.116 
849 1 1 59.0773 30.5059 58.3787 
850 1 1 60.1405 32.2134 58.2255 
851 1 1 61.0749 32.7462 58.3092 
852 1 1 0.752638 33.1535 57.8159 
853 1 1 0.168502 32.689 58.2044 
854 1 1 58.9771 28.0072 49.2455 
855 1 1 2.42937 31.5969 49.8928 
856 1 1 1.82586 30.9388 49.3851 
857 1 1 61.0064 28.3466 48.9516 
858 1 1 1.12803 30.2741 49.0317 
859 1 1 61.742 28.9618 48.8523 
860 1 1 0.540932 29.5615 48.89 
861 1 1 60.1091 27.8065 49.0391 
862 1 1 60.9199 27.5476 49.1898 
863 1 1 58.6428 27.0443 49.7627 
864 1 1 58.1815 26.3289 50.2829 
865 1 1 57.8531 25.6999 50.7708 
866 1 1 57.5395 25.1241 51.2955 
867 1 1 56.0581 25.9744 53.8333 
868 1 1 57.0494 25.015 51.9135 
869 1 1 56.6149 24.8615 52.6727 
870 1 1 56.3124 24.7576 53.8691 
871 1 1 58.2542 29.2542 58.3616 
872 1 1 57.6732 28.4992 58.2047 
873 1 1 57.2259 27.6425 58.019 
874 1 1 56.7709 27.2784 57.3591 
875 1 1 56.4378 27.0184 56.5591 
876 1 1 56.0038 26.3408 54.7589 
877 1 1 56.1511 26.6902 55.6767 
878 1 1 3.19798 33.8811 54.2777 
879 1 1 2.95059 33.5531 55.1635 
880 1 1 3.30054 32.0719 51.3486 
881 1 1 2.90608 31.4018 50.653 
882 1 1 3.55329 33.2327 53.6098 
883 1 1 3.70007 32.5457 52.9826 
884 1 1 3.52994 31.873 52.2275 
885 1 1 2.59086 33.3292 55.9902 
886 1 1 2.11984 32.9806 56.7712 
887 1 1 1.58855 32.6132 57.3823 
888 1 1 60.0739 31.1529 58.4658 
889 1 1 59.7987 30.2545 58.7395 
890 1 1 59.0679 29.5344 58.6624 
891 1 1 60.8771 31.7275 58.4702 
892 1 1 61.6087 32.1244 58.3779 
893 1 1 0.986142 32.2005 57.9717 
894 1 1 0.339351 31.8823 58.2951 
895 1 1 59.5034 27.047 49.4632 
896 1 1 2.40098 30.5612 50.0909 
897 1 1 1.85701 29.9594 49.6533 
898 1 1 61.8008 27.8904 49.3372 
899 1 1 1.23674 29.2996 49.4287 
900 1 1 0.536294 28.5605 49.3236 
901 1 1 60.439 26.9892 49.3906 
902 1 1 61.3539 26.9779 49.5548 
903 1 1 59.0838 26.2363 49.8597 
904 1 1 58.6542 25.5586 50.3152 
905 1 1 58.2293 24.7387 50.9732 
906 1 1 57.6361 24.4118 51.6008 
907 1 1 56.1629 25.2593 54.815 
908 1 1 57.1786 24.2149 52.3415 
909 1 1 56.854 24.0789 53.199 
910 1 1 56.7674 24.0177 54.0448 
911 1 1 56.6282 24.3362 54.8062 
912 1 1 58.5363 28.6228 58.7601 
913 1 1 58.2218 27.9153 58.785 
914 1 1 57.7472 27.3913 58.5344 