ITEM: TIMESTEP
100000000
ITEM: NUMBER OF ATOMS
57074
ITEM: BOX BOUNDS pp pp pp
0 62
0 62
0 62
ITEM: ATOMS id mol type x y z vx vy vz 
1 1 3 59.3886 29.5168 41.8402 0.103691 0.012925 -0.106145
2 1 1 59.713 29.646 42.7529 -0.0155047 -0.0824844 -0.0239352
3 1 1 60.0755 30.1977 42.0516 -0.0256658 0.11023 -0.155297
4 1 1 60.2654 30.2497 43.01 0.14927 -0.0142842 -0.11093
5 1 3 59.8166 30.1034 41.2242 0.0486606 0.0604112 -0.0362739
6 1 1 60.7938 30.801 42.288 -0.0805886 -0.12809 0.0967334
7 1 1 61.1412 30.8496 43.2171 0.0617908 -0.0529994 0.202611
8 1 1 59.0567 29.0203 42.3521 -0.000922648 -0.0733392 0.0197668
9 1 3 59.3923 28.9229 43.2806 0.093318 0.0319627 -0.0512825
10 1 1 59.9817 29.5526 43.6506 -0.111095 -0.0116444 -0.0118492
11 1 1 60.6557 30.1748 43.8029 -0.0554883 -0.00535401 0.111905
12 1 1 61.3441 30.4543 44.163 -0.0699593 0.166918 -0.206453
13 1 3 58.9748 29.0214 41.2959 -0.0778839 -0.0487242 -0.0542787
14 1 1 59.3561 29.5609 41.0791 0.0167521 -0.11732 0.155871
15 1 1 59.6238 29.7862 40.368 0.0567714 0.00841699 -0.107493
16 1 1 60.6314 30.7477 41.3657 -0.157614 -0.0417608 -0.148118
17 1 3 60.3466 30.4586 40.484 0.197411 -0.084663 0.148566
18 1 1 61.8264 30.8695 43.8057 -0.0123903 0.0508692 -0.125249
19 1 1 0.0157987 31.2419 43.1153 -0.0750937 0.257974 0.129215
20 1 1 61.6664 31.2786 42.3574 -0.022078 -0.00181895 0.174126
21 1 3 61.4596 31.2485 41.5269 0.00142207 -0.12924 -0.00870325
22 1 1 58.6938 28.4204 41.0246 -0.0716127 0.0574121 -0.0554505
23 1 1 58.7187 28.3605 42.0159 -0.0972333 0.0206353 0.0207653
24 1 1 58.9355 28.2276 42.8831 -0.0068254 -0.0334243 0.00402808
25 1 3 59.1418 28.0436 43.6824 -0.0936867 0.053395 -0.158917
26 1 1 59.6739 28.7495 44.1716 0.0369396 0.0101342 0.255161
27 1 1 60.3508 29.3146 44.5629 -0.0208147 -0.170193 -0.11835
28 1 1 0.245235 30.6023 44.4332 -0.0775422 0.0504615 -0.0606667
29 1 3 60.9846 29.7878 44.7809 0.0137035 0.00412957 0.0274194
30 1 1 61.8407 30.0643 45.0272 -0.148467 -0.142572 -0.138369
31 1 1 59.065 28.982 40.318 0.0495824 -0.0198272 -0.0553546
32 1 1 59.627 29.4632 39.7432 -0.115351 0.252251 0.258684
33 1 3 60.2791 29.9921 39.6876 -0.0192941 -0.0449917 0.0143405
34 1 1 61.1902 30.9489 40.5804 0.0483889 0.0563662 -0.143246
35 1 1 61.0008 30.5287 39.7264 0.138154 -0.175599 -0.12981
36 1 1 0.541181 31.0495 43.8084 0.105248 -0.0205698 -0.0305648
37 1 3 0.988757 31.4175 43.1503 -0.00234888 0.0648386 0.00559065
38 1 1 0.996005 30.6058 44.5377 0.181197 -0.111762 -0.0409211
39 1 1 0.60867 31.5137 42.4412 -0.057585 0.06502 -0.0486073
40 1 1 0.394689 31.5733 41.7085 0.157878 -0.171732 -0.113278
41 1 3 0.149669 31.3533 40.7812 -0.106263 0.0296444 0.0741345
42 1 1 58.6649 28.1217 40.3177 -0.0541906 0.147626 -0.0145676
43 1 1 58.4612 27.4727 40.9798 0.148894 -0.0398787 0.025341
44 1 1 58.4661 27.5331 41.7414 -0.115343 -0.0407601 0.128242
45 1 3 58.649 27.649 42.4693 -0.0521977 0.130744 0.0668315
46 1 1 58.7993 27.3572 43.1205 0.118821 0.0357623 -0.101691
47 1 1 59.0479 27.0866 43.8948 0.00519882 -0.00841364 0.0982969
48 1 1 59.515 27.8138 44.5544 0.0372207 -0.0856973 0.0635311
49 1 3 60.1224 28.4861 45.0437 0.11204 0.185428 0.163911
50 1 1 60.77 28.9495 45.3956 -0.0103493 0.0371619 -0.0365061
51 1 1 0.614458 30.1483 45.2019 -0.191933 0.182925 0.00343393
52 1 1 61.5009 29.3637 45.5608 0.128021 -0.0512355 -0.0826012
53 1 3 0.173558 29.6954 45.5403 0.0998223 0.209685 -0.0347758
54 1 1 58.9475 28.2908 39.6826 0.118878 -0.0685686 0.017632
55 1 1 58.8356 27.2614 39.6799 -0.110472 0.0877866 0.0685449
56 1 1 59.3205 28.7876 39.4416 -0.216637 -0.0294611 -0.0389664
57 1 3 59.9459 29.3363 39.0848 -0.111295 -0.182119 0.0197454
58 1 1 59.4534 28.0736 38.8045 -0.0974052 0.0520575 -0.0107379
59 1 1 60.8598 29.8542 38.9396 -0.0181963 -0.0460516 -0.0685548
60 1 1 61.9316 30.9422 39.8204 0.122383 0.0919043 0.0214573
61 1 3 61.6127 30.2885 39.024 -0.129748 -0.0664019 0.151631
62 1 1 1.29443 31.5574 42.5302 0.0603946 0.168094 -0.034875
63 1 1 1.37326 30.9937 43.8476 0.0294059 0.0816267 0.175091
64 1 1 1.81515 31.3652 43.0833 -0.0154448 -0.145963 -0.0599127
65 1 3 1.35856 30.1381 45.2652 0.0103923 -0.00640724 0.0920481
66 1 1 1.83806 30.6288 44.4855 0.030317 0.148822 0.0711679
67 1 1 1.29044 31.6847 41.8897 0.0403182 -0.126053 -0.201149
68 1 1 1.1405 31.5045 40.9387 -0.0155365 0.150219 -0.0432356
69 1 3 0.871875 31.192 40.0565 0.0420245 0.0510684 -0.0169703
70 1 1 58.5567 27.1582 40.4574 0.00773818 0.0492942 0.0754758
71 1 1 58.3449 26.7076 41.2044 -0.16736 0.0651427 -0.0577495
72 1 1 58.441 26.6449 42.2933 -0.19711 -0.198859 -0.0216066
73 1 3 58.7253 26.4306 43.2046 -0.0699009 0.0520681 -0.0828686
74 1 1 59.0982 26.2534 44.0323 -0.131712 -0.0295508 -0.0546899
75 1 1 59.4607 26.813 44.7261 -0.17533 -0.0371623 -0.0443215
76 1 1 60.0716 27.4508 45.2869 -0.0331615 -0.0385337 -0.00778638
77 1 3 60.7035 28.0818 45.7435 0.19608 -0.30132 -0.0953509
78 1 1 61.3665 28.5295 46.0115 0.160699 0.00713665 0.0409695
79 1 1 0.907336 29.5995 45.7857 0.00838915 0.142933 -0.109157
80 1 1 0.223187 28.9373 46.143 0.123235 0.139287 0.293361
81 1 3 1.84663 29.6086 45.7615 -0.0939435 0.13137 -0.029599
82 1 1 58.8078 26.3357 39.8647 -0.0568432 -0.0700875 0.00612894
83 1 1 59.1606 27.3507 38.9545 0.0439297 -0.141869 -0.00720042
84 1 1 59.0349 26.646 39.2018 0.110178 0.03666 -0.0790818
85 1 3 59.8304 28.5636 38.6182 0.018794 0.00618426 -0.0159658
86 1 1 60.5808 29.1063 38.3935 -0.0621062 -0.0549403 -0.111113
87 1 1 59.8073 27.7024 38.2617 0.0682243 0.182378 0.110858
88 1 1 61.4596 29.5364 38.3199 -0.0749649 -0.150913 0.0880334
89 1 3 0.520044 30.6885 39.2077 0.0110367 -0.0381849 -0.0752881
90 1 1 0.287386 29.9706 38.4279 -0.0655825 -0.0775464 0.0743048
91 1 1 2.23164 31.572 42.2557 0.173576 0.126048 0.120334
92 1 1 2.19801 30.9921 43.7286 0.0430484 0.0778719 -0.0594439
93 1 3 2.75016 31.2265 42.987 -0.0336855 -0.0946529 0.0400421
94 1 1 2.23995 30.1388 45.0795 0.0195975 0.0221019 0.0967252
95 1 1 2.78009 30.552 44.3503 -0.0721844 -0.0813667 0.170186
96 1 1 2.05244 31.629 41.2785 -0.0128786 -0.0316271 0.0909627
97 1 3 1.89632 31.3352 40.3472 0.0253983 -0.155478 -0.182526
98 1 1 1.43247 30.85 39.3869 0.00338147 0.109278 -0.118315
99 1 1 58.5432 26.0912 40.6808 -0.277366 -0.00415136 0.0419153
100 1 1 58.3892 25.7413 41.6064 -0.0897139 0.0306938 -0.21933
101 1 3 58.5782 25.5807 42.5577 -0.0433294 0.139842 0.0463877
102 1 1 58.8555 25.4243 43.3967 -0.116394 0.0339242 0.0798993
103 1 1 59.4534 26.0827 44.7179 -0.0230886 -0.113664 0.0668348
104 1 1 59.2189 25.5486 44.2429 -0.0346033 -0.125356 -0.141297
105 1 3 60.0463 26.3733 45.4385 0.168672 -0.0432694 0.104626
106 1 1 60.7697 27.1395 45.9206 -0.140669 0.219154 -0.0605425
107 1 1 61.4152 27.7608 46.2808 -0.262093 -0.00682317 -0.00883313
108 1 1 61.9772 28.0909 46.4564 -0.0216277 -0.0302497 -0.0328875
109 1 3 2.66382 29.5486 45.7162 -0.233561 -0.0175703 -0.0262891
110 1 1 1.23385 28.9872 46.308 -0.0144313 0.0637552 -0.102801
111 1 1 0.653963 28.1957 46.6096 0.155778 0.00667407 -0.034383
112 1 1 2.22981 28.9081 46.2613 -0.0843071 -0.00345407 -0.0852464
113 1 3 59.1704 25.8993 39.142 0.0113137 0.15987 -0.100818
114 1 1 58.885 25.5625 39.9716 0.0149607 0.39999 0.173265
115 1 1 59.643 26.5787 38.3427 -0.0057042 0.0303478 -0.04084
116 1 1 59.7583 25.6361 38.454 -0.0982483 0.00866736 0.131032
117 1 3 60.4181 28.1534 37.8865 0.213942 0.000717349 0.0681745
118 1 1 61.2147 28.6961 37.7714 0.0667373 0.0157609 -0.0481303
119 1 1 60.4121 27.1158 37.7138 -0.0518745 0.0441673 -0.0567261
120 1 1 0.155515 29.1494 37.7985 0.0422407 0.114274 0.153454
121 1 3 1.25266 30.2537 38.548 0.00199093 -0.0641171 0.0507274
122 1 1 0.862874 29.5106 37.932 0.128745 -0.214983 -0.0831286
123 1 1 2.93132 31.3482 41.4683 0.0326173 -0.00513977 -0.0947537
124 1 1 3.06957 31.2485 42.222 0.152261 -0.10253 0.00180777
125 1 3 3.12484 30.8486 43.5348 0.203366 0.193472 -0.0373895
126 1 1 3.46136 30.9939 42.6268 0.160112 -0.0900905 0.0251004
127 1 1 3.08765 29.9374 45.0464 0.0202974 0.0601749 0.0532163
128 1 1 3.57126 30.2019 44.3014 0.102935 -0.0199643 0.0732776
129 1 3 3.61659 29.468 45.5583 0.014206 -0.110035 0.0139489
130 1 1 2.09178 30.4122 38.7918 -0.0854047 -0.143749 0.0113757
131 1 1 2.7103 31.2864 40.641 0.119542 0.135333 0.264042
132 1 1 2.42801 30.8635 39.4867 0.060766 0.045841 0.0606573
133 1 3 58.7424 25.1749 40.796 -0.10593 0.0958778 -0.117052
134 1 1 58.6467 24.9471 41.8224 0.0773942 0.0263137 0.0901295
135 1 1 59.3076 24.8882 43.9491 0.0638879 0.0300786 -0.067167
136 1 1 58.7992 24.733 42.6449 0.0264088 -0.0534877 0.0666932
137 1 3 59.2026 24.5117 43.3508 -0.019014 0.103071 -0.113126
138 1 1 59.8368 25.4679 45.025 -0.0281945 0.133505 0.0391783
139 1 1 59.6445 24.8191 44.5217 -0.041639 -0.0450674 0.000453761
140 1 1 60.5358 25.5718 45.7052 -0.0476029 0.108409 -0.0441343
141 1 3 61.0492 26.3432 46.1396 -0.0207841 0.0877722 0.0551879
142 1 1 61.4407 27.0046 46.3736 0.0642117 0.0628511 -0.0760988
143 1 1 0.19571 27.3134 46.6728 0.0136465 0.08895 -0.0581361
144 1 1 3.16225 28.8924 46.1964 0.128792 0.0812828 -0.0119892
145 1 3 1.51937 28.2329 46.6726 0.118628 -0.0987803 -0.101555
146 1 1 1.06937 27.6927 46.7586 -0.264076 -0.0870964 0.0187368
147 1 1 2.62376 28.3092 46.6543 0.039532 -0.0287722 0.0418367
148 1 1 59.389 25.0655 39.2067 0.0434867 -0.0922912 -0.0601908
149 1 3 59.1248 24.6639 40.1017 -0.0646847 0.174544 -0.0216763
150 1 1 60.4346 26.1359 37.7429 -0.0234053 0.0106994 -0.0122485
151 1 1 60.0118 24.8547 38.5343 -0.197727 0.00354652 0.0203427
152 1 1 60.6303 25.2233 37.9041 0.0794875 0.0863921 -0.109891
153 1 3 61.1534 27.7022 37.3172 -0.0414605 0.014113 -0.041326
154 1 1 62.0135 28.3078 37.2589 -0.0767455 -0.124374 -0.248162
155 1 1 61.0792 26.7593 37.2032 -0.0851091 -0.028746 0.00223745
156 1 1 0.912017 28.7679 37.3623 0.095136 0.0691025 0.0462194
157 1 3 1.80404 29.7316 38.0694 0.0688083 0.0357096 -0.0983736
158 1 1 1.42239 29.1455 37.6004 -0.0959345 0.0340254 -0.104867
159 1 1 3.37398 31.053 40.9861 0.00833314 -0.0250797 0.140369
160 1 1 3.76094 30.9207 41.6338 -0.0417168 0.149721 -0.0682465
161 1 3 4.21949 30.6097 42.4191 -0.192103 0.118825 0.0781715
162 1 1 3.97851 30.4232 43.2932 -0.00244825 -0.0411451 -0.0372777
163 1 1 4.0206 29.7545 44.8881 0.12476 0.0483473 0.0103276
164 1 1 4.32564 30.0083 44.2182 0.021429 -0.0645211 0.206661
165 1 3 4.1262 28.8909 46.0858 -0.0836353 -0.0183866 -0.0442076
166 1 1 4.32454 29.2699 45.4756 0.0315883 -0.00028301 0.00011275
167 1 1 2.81491 30.2162 38.8389 -0.00208704 -0.277044 0.0317512
168 1 1 2.48776 29.7764 38.3319 0.0392861 -0.131711 0.13573
169 1 3 3.3569 30.8278 40.1736 0.0778898 -0.148007 -0.0124093
170 1 1 3.40643 30.4197 39.403 -0.0416029 0.0763437 -0.00448723
171 1 1 59.0134 24.289 41.0805 0.0258726 0.00724834 0.217042
172 1 1 59.1377 24.0768 41.9447 -0.0397532 0.0482829 -0.0596722
173 1 3 59.6417 24.2561 44.0545 -0.0580447 0.0371996 0.112583
174 1 1 59.4102 23.859 42.7409 0.0253119 -0.21069 0.0273436
175 1 1 59.6134 23.8364 43.4693 0.250478 0.00667229 0.00304883
176 1 1 60.2281 24.1005 44.5629 0.07297 0.0384147 -0.205418
177 1 3 60.3893 24.7597 45.1573 -0.0867452 -0.16986 0.0751472
178 1 1 61.114 24.7574 45.7259 0.0130852 0.0415005 0.061084
179 1 1 61.4657 25.6046 46.1716 -0.00392218 0.133629 0.201801
180 1 1 61.8669 26.394 46.5171 0.0259167 -0.0968496 -0.000435051
181 1 3 0.660173 26.6099 46.7503 0.141273 0.161846 0.0422989
182 1 1 1.23121 26.9479 46.8738 0.303217 -0.0238903 -0.0127912
183 1 1 3.65467 28.2291 46.6455 -0.221782 -0.165741 0.0387743
184 1 1 4.56946 28.3831 46.4648 0.0524952 -0.0669775 -0.0642198
185 1 3 2.03984 27.4741 46.929 0.0799947 0.0507022 0.108898
186 1 1 3.07296 27.7071 46.9308 -0.0909512 0.0142882 -0.0926922
187 1 1 59.6368 24.3041 39.3795 0.0941089 0.0933437 0.0319331
188 1 1 59.5103 23.7962 40.2894 -0.116234 -0.000852337 0.0833334
189 1 3 61.1739 25.8829 37.3224 0.0238198 -0.0328077 -0.192483
190 1 1 61.4037 25.1032 37.4343 0.0991227 -0.00588397 -0.164917
191 1 1 60.1166 24.1031 38.843 0.00453862 0.0297023 -0.0960205
192 1 1 60.5337 24.3141 38.333 -0.0115911 0.0129648 0.0923078
193 1 3 61.1194 24.4876 37.7831 0.0414892 0.0951197 -0.0851842
194 1 1 -0.0439143 27.3925 36.9167 -0.296276 0.0273314 0.192039
195 1 1 0.896059 27.8599 36.9093 0.0121367 -0.106903 0.209755
196 1 1 61.9573 26.3874 36.8716 0.0147391 -0.0321357 -0.0826858
197 1 3 1.87068 28.3828 37.2168 0.0687011 0.0305661 0.0658716
198 1 1 2.26892 29.045 37.6506 -0.0318724 0.0157687 -0.0281589
199 1 1 3.93957 30.7083 40.6947 0.0784745 -0.125103 -0.0705207
200 1 1 4.4602 30.51 41.1367 0.0559126 -0.0171703 0.0759645
201 1 3 4.632 30.3936 41.9723 -0.0283413 0.0578128 -0.119517
202 1 1 4.78004 30.1617 42.8041 -0.12679 0.049357 0.0227214
203 1 1 4.97289 29.9381 43.6958 0.00693662 0.0842029 -0.00963275
204 1 1 4.90924 29.467 44.7679 -0.0288196 0.114696 -0.00536287
205 1 3 5.13985 28.8154 45.7928 -0.0834191 0.0675668 0.0709438
206 1 1 3.38609 29.7914 38.6407 0.0387702 0.0771044 -0.0678049
207 1 1 3.11643 29.1215 38.0164 -0.0443971 -0.0786736 0.0884587
208 1 1 4.09482 30.2478 39.8527 0.0626107 0.0874054 -0.144565
209 1 3 4.0382 29.7679 39.0514 -0.13277 -0.146628 0.169017
210 1 1 59.523 23.5051 41.3094 0.0988735 -0.190873 -0.0265876
211 1 1 59.7087 23.3204 42.0426 -0.0840014 0.0402659 -0.0511193
212 1 1 60.1347 23.5058 43.8338 0.076819 0.0225591 -0.0244348
213 1 3 60.0598 23.0773 42.9237 0.0577295 0.0317439 -0.10644
214 1 1 60.8056 23.4411 44.446 0.116767 0.0768864 0.117911
215 1 1 60.896 24.0879 45.0891 0.0812638 -0.00894628 -0.076619
216 1 1 5.32114 28.2067 46.5394 0.106507 -0.0107826 0.136535
217 1 3 4.54601 27.7817 46.9826 -0.126427 -0.0340907 0.181878
218 1 1 61.6802 23.9964 45.5783 0.0577422 -0.00308248 -0.0207562
219 1 1 -0.0941535 24.7573 46.1577 -0.000218977 -0.0939275 0.105592
220 1 1 0.365986 25.6879 46.5758 -0.0195164 -0.0894717 -0.113068
221 1 3 1.25251 26.1147 46.904 -0.0537742 -0.0612339 -0.110787
222 1 1 2.02191 26.4735 47.1143 -0.0586982 -0.105401 -0.00161832
223 1 1 3.73152 27.3965 47.1292 -0.0435666 -0.0906531 -0.191203
224 1 1 2.90893 26.9014 47.2017 -0.0973251 -0.0823919 0.0797462
225 1 3 60.05 23.0601 40.6536 -0.00820759 -0.157701 -0.0981488
226 1 1 60.2121 23.4146 39.5405 -0.0444937 0.0807683 0.0634772
227 1 1 0.053614 25.5389 36.9835 0.0800956 -0.0318308 -0.150722
228 1 1 0.125363 24.9135 37.2184 -0.141432 0.00527245 0.0499468
229 1 3 61.762 24.386 37.5336 -0.0085743 -0.116403 0.00476106
230 1 1 60.7517 23.5852 38.7278 0.162339 -0.0393517 -0.0352985
231 1 1 61.2559 23.9535 38.0487 -0.00167452 -0.193763 0.0812923
232 1 1 0.770079 26.9564 36.6803 -0.000431714 -0.120148 -0.0453182
233 1 3 1.66606 27.3166 36.7474 -0.123867 0.0237635 0.0130539
234 1 1 0.848116 26.0701 36.6823 0.13235 -0.00857449 -0.0429854
235 1 1 2.56335 27.4559 36.9485 -0.086181 0.0934868 -0.0330278
236 1 1 2.87268 28.3531 37.4555 -0.0660307 -0.185217 -0.01056
237 1 3 4.62226 30.2292 40.5605 0.0324652 0.0698269 0.0504269
238 1 1 5.2696 29.9964 41.2401 -0.0917498 -0.0997694 0.052923
239 1 1 5.46116 29.8863 42.2211 0.0225367 0.0349968 -0.121649
240 1 1 5.58199 29.702 43.2015 0.138289 0.0707067 -0.0397779
241 1 3 5.73324 29.3926 44.1085 -0.0249896 0.0471762 -0.153661
242 1 1 5.93413 28.9599 45.0241 -0.0703864 0.0980292 0.0166918
243 1 1 6.11434 28.4238 45.9033 0.0843994 -0.0657269 0.0136959
244 1 1 3.91678 29.1134 38.4261 -0.0511887 0.00977486 -0.0747793
245 1 3 3.65688 28.4345 37.8893 -0.00645229 -0.111039 0.100568
246 1 1 4.79091 29.6526 39.7298 0.0949146 0.180507 -0.00966046
247 1 1 4.65093 29.1015 39.0059 -0.0602691 0.0316144 -0.0221086
248 1 1 60.1788 22.7955 41.4998 -0.301509 -0.043329 0.106473
249 1 3 60.2865 22.7229 42.1709 -0.102855 -0.0355698 0.0316137
250 1 1 60.7195 22.829 43.5742 0.00521881 0.00215578 -0.0582623
251 1 1 60.7663 22.4232 42.5915 0.065385 0.0257775 -5.03905e-05
252 1 1 61.4549 22.7384 44.254 0.0631387 0.124582 -0.0100959
253 1 3 61.5792 23.332 44.9947 -0.091552 -0.0354802 0.256473
254 1 1 6.12684 27.7459 46.7825 -0.14778 -0.118776 0.0156969
255 1 1 5.33321 27.3902 47.1475 0.162661 0.102147 0.0996811
256 1 1 4.54474 26.8887 47.4257 0.0526423 0.0945832 -0.0107305
257 1 3 0.195259 23.4689 45.5378 0.0862338 -0.118594 -0.138
258 1 1 0.425346 24.0683 46.1108 -0.0268421 0.145853 0.00224502
259 1 1 0.664882 24.7171 46.491 -0.0347637 0.00281595 -0.0131318
260 1 1 1.35745 25.1509 46.8531 -0.226178 0.064573 -0.0199644
261 1 3 2.08811 25.4378 47.114 -0.0921493 0.0919738 -0.0356186
262 1 1 2.86621 25.933 47.3007 0.0488875 -0.0623762 -0.176546
263 1 1 3.64917 26.4451 47.4429 -0.139298 -0.0385566 0.128111
264 1 1 60.5979 22.5868 40.9015 0.0905394 -0.0118785 -0.0393077
265 1 3 60.7484 22.7054 40.1414 -0.0379615 0.0648832 -0.0388703
266 1 1 61.1519 22.941 39.1731 -0.0766139 -0.0214255 0.174153
267 1 1 1.03781 25.2144 36.8789 0.00284483 -0.114207 0.0490148
268 1 1 0.560707 24.2834 37.3109 -0.0190566 -4.01941e-05 -0.103892
269 1 3 0.160012 23.675 37.8001 0.110914 -0.0132741 0.13506
270 1 1 61.5785 23.3097 38.415 -0.120635 0.00990717 -0.1173
271 1 1 1.6162 26.4173 36.5836 0.135508 0.0780772 -0.00971963
272 1 1 2.2347 26.8085 36.6702 -0.159753 0.0586374 0.0251902
273 1 3 1.71597 25.7808 36.6975 0.114729 -0.0982042 -0.418223
274 1 1 2.95421 26.7792 36.8909 0.0262947 0.013863 -0.213836
275 1 1 3.37557 27.5489 37.3391 -0.0456634 0.0250986 0.100754
276 1 1 5.44544 29.5601 40.3479 -0.208841 -0.125693 0.0617904
277 1 3 6.0226 29.3913 40.8938 0.0395788 0.186463 0.166769
278 1 1 6.16018 29.4975 41.6672 0.0450618 -0.112838 -0.0557688
279 1 1 6.29665 29.4152 42.4703 0.109479 0.0300882 -0.0533533
280 1 1 6.36704 29.2606 43.4376 0.0122502 0.0595696 -0.107332
281 1 3 6.61269 28.9971 44.3803 0.178038 0.0864065 -0.133587
282 1 1 6.77734 28.5136 45.2932 0.046465 -0.0300865 -0.161286
283 1 1 6.91644 27.8917 46.2539 0.150038 0.08538 0.0744634
284 1 1 4.54574 28.3534 38.4468 -0.0762149 0.025669 -0.148239
285 1 3 4.24844 27.7107 37.8977 -0.00255476 -0.0430024 0.0124447
286 1 1 5.40885 29.021 39.5512 0.00418527 0.0559603 -0.209887
287 1 1 5.17757 28.4319 38.939 0.0456089 0.110963 -0.0103978
288 1 1 60.87 22.2321 41.7018 0.142002 0.245317 -0.0255943
289 1 3 61.2763 22.3468 43.357 -0.0635258 0.0535465 0.0529315
290 1 1 61.3366 22.0956 42.636 0.153291 0.0401093 -0.177286
291 1 1 6.97406 27.2888 47.0454 0.0354865 0.205965 0.0434324
292 1 1 0.119946 22.0845 43.9792 -0.0745754 -0.103199 0.0785037
293 1 3 0.1345 22.6532 44.7953 0.131948 -0.0864818 0.0116964
294 1 1 6.18885 26.9861 47.3922 0.00365156 0.0701665 -0.00803615
295 1 1 5.33371 26.556 47.6507 0.0762324 -0.102272 -0.0848802
296 1 1 4.53104 26.0163 47.7638 -0.0744586 -0.165026 0.112687
297 1 3 0.801625 22.8268 45.4963 -0.0461611 -0.124348 -0.00476689
298 1 1 0.864943 23.4301 45.9654 0.058648 0.0122309 -0.118669
299 1 1 1.41717 24.1096 46.5964 0.0750797 -0.181576 0.0587264
300 1 1 2.20554 24.5508 47.0536 0.0572655 -0.0375874 -0.0763888
301 1 3 2.92137 24.9898 47.4217 0.163172 0.0736392 -0.0163964
302 1 1 3.6776 25.5033 47.6777 0.020754 0.000132803 0.0421795
303 1 1 0.0254259 22.7001 39.0076 -0.104288 0.186078 0.149259
304 1 1 61.2145 22.2116 40.7185 0.0229905 -0.0650997 0.0529308
305 1 3 61.5877 22.3855 39.8417 0.107329 -0.175988 0.071871
306 1 1 2.02639 25.0949 36.8413 -0.00652039 0.0770081 0.0582513
307 1 1 1.39262 24.4229 37.1012 -0.126995 0.0191243 0.0289992
308 1 1 0.983303 23.6506 37.6164 0.0268856 0.247577 -0.0924445
309 1 3 0.553522 23.073 38.3231 -0.0749649 0.146134 -0.0125934
310 1 1 2.47755 25.9429 36.7233 0.0755929 -0.0295711 -0.138308
311 1 1 3.41465 26.0934 37.0478 -0.0233528 0.041844 -0.0884387
312 1 1 3.90973 26.8065 37.3906 -0.0279934 -0.148868 -0.171092
313 1 3 6.16119 28.8457 40.1402 0.057883 0.0173182 0.151522
314 1 1 6.60396 29.051 41.0267 0.0883915 -0.0176005 0.0510042
315 1 1 6.98061 28.9997 41.924 0.184419 -0.0206176 -0.164403
316 1 1 7.14726 29.0118 42.8421 0.0530263 -0.236625 -0.0579214
317 1 3 7.31723 28.8107 43.7418 -0.00631318 -0.182111 0.00975853
318 1 1 7.526 28.5612 44.6248 -0.0648385 -0.146457 -0.0119059
319 1 1 7.5995 28.0919 45.6434 -0.0239498 -0.0591428 0.0375652
320 1 1 7.78494 27.4751 46.4739 0.0763743 0.20187 0.0815556
321 1 3 5.06217 27.7081 38.4508 0.0806922 -0.0271536 0.0335409
322 1 1 4.78653 27.0849 37.9763 -0.110671 -0.0501558 -0.113022
323 1 1 5.9875 28.2861 39.3663 0.0485641 0.00331444 0.0640546
324 1 1 5.65692 27.8584 38.84 0.15694 -0.101313 -0.159424
325 1 3 61.606 21.8675 41.2883 -0.126896 0.121585 0.00749946
326 1 1 61.7319 21.7566 42.0055 0.0751408 0.0600726 0.0589718
327 1 1 0.0997574 21.7051 43.0582 0.101285 -0.0865708 0.0716363
328 1 1 0.7287 21.6603 43.8152 -0.0870416 0.0551413 -0.0389014
329 1 3 7.87211 26.7717 47.2153 -0.136073 0.00397838 -0.0647783
330 1 1 7.13162 26.4498 47.6322 -0.0163727 -0.0466155 -0.00776792
331 1 1 0.856444 22.0991 44.6832 0.0804166 -0.0794622 0.0407138
332 1 1 6.23615 26.0796 47.9198 0.0944245 0.0031179 -0.0630998
333 1 3 5.40695 25.6279 48.023 0.0588874 0.0938811 -0.0663638
334 1 1 4.54459 25.0391 48.0016 -0.0648845 -0.124597 0.0324205
335 1 1 1.39704 22.3162 45.4683 0.130193 0.0579972 0.0178876
336 1 1 1.59291 22.9419 46.2281 0.109756 -0.12804 0.0126334
337 1 3 2.28549 23.4724 46.8929 -0.00162097 0.0498532 -0.00648089
338 1 1 2.95173 24.0425 47.3126 0.156733 0.0425602 0.0505142
339 1 1 3.71977 24.5407 47.7161 0.0507812 -0.152316 -0.0321314
340 1 1 2.60785 24.9094 36.9503 0.103902 -0.077534 0.0412161
341 1 3 0.996866 22.4814 38.8378 0.032984 -0.0985314 -0.0159636
342 1 1 0.554473 22.1393 39.5871 0.057205 0.113932 -0.115874
343 1 1 0.105121 21.8273 40.5378 -0.00924071 -0.0247357 0.074859
344 1 1 2.32954 24.2569 37.0934 -0.0189102 -0.0249347 -0.0603591
345 1 3 1.91811 23.5752 37.4524 -0.0063486 -0.2002 0.173215
346 1 1 1.39718 23.0168 38.0743 -0.0258606 -0.160214 0.0498854
347 1 1 1.71794 22.4301 38.6361 -0.0795795 0.0375682 -0.0104024
348 1 1 3.24633 25.4384 37.029 -0.0163015 -0.0850775 -0.00956651
349 1 3 4.06001 25.748 37.2828 0.0164698 -0.00981884 -0.100658
350 1 1 4.84879 26.1995 37.731 0.0328701 0.209439 0.0187422
351 1 1 6.6011 28.1625 39.7506 -0.0546597 0.0327295 -0.107805
352 1 1 6.98151 28.4343 40.4636 0.0957355 0.19663 -0.231138
353 1 3 7.43535 28.5792 41.239 0.159105 0.141631 0.0845195
354 1 1 7.75837 28.6187 42.0718 -0.0832493 0.113992 -0.0159826
355 1 1 8.11692 28.5526 43.0011 -0.0941723 -0.0836991 -0.126989
356 1 1 8.274 28.4421 43.9528 0.195277 -0.0985069 -0.0506684
357 1 3 8.35486 28.1633 44.9283 0.061518 -0.0794747 0.130807
358 1 1 8.49888 27.7002 45.8985 -0.181976 0.109202 -0.104231
359 1 1 8.66997 27.0276 46.7093 0.151005 -0.170386 -0.0670281
360 1 1 5.66261 26.8547 38.3109 -0.0448799 0.0973228 0.0336224
361 1 3 6.44786 27.3934 39.0092 0.0671253 0.0718857 -0.070495
362 1 1 0.340163 21.5323 41.4352 -0.159069 0.184242 -0.00635534
363 1 1 0.585905 21.3561 42.2618 -0.128867 -0.0716855 0.0136327
364 1 1 1.04349 21.2493 43.2176 -0.0798541 -0.237146 0.0198056
365 1 3 1.36542 21.4267 44.1201 0.0089197 -0.0494076 -0.0407868
366 1 1 8.69584 26.2571 47.4806 0.229451 0.00268508 0.0177581
367 1 1 7.9548 25.9626 47.9004 -0.0470342 0.0912413 0.0768124
368 1 1 7.08716 25.5826 48.2093 0.0711756 -0.100483 -0.0788153
369 1 3 1.67228 21.7232 45.0031 -0.199621 -0.0226233 0.0248165
370 1 1 6.28629 25.0833 48.3243 -0.0527226 0.0766279 0.106977
371 1 1 5.40903 24.6286 48.2634 0.292055 0.0400365 0.024564
372 1 1 4.5288 24.0676 48.0316 0.0786979 0.0332641 -0.139851
373 1 3 2.09792 22.0448 45.8666 0.0737864 0.0832889 -0.179195
374 1 1 2.49035 22.4483 46.5265 -0.0189008 -0.147468 0.073135
375 1 1 3.08928 22.9455 47.1558 -0.107492 -0.0274177 -0.108301
376 1 1 3.77545 23.4779 47.6945 0.197589 -0.0719017 0.151247
377 1 3 3.30058 24.4198 37.1777 0.0745024 -0.0357997 0.250092
378 1 1 1.42243 21.9442 39.391 -0.0726061 -0.119248 -0.10725
379 1 1 1.01423 21.6421 40.0194 -0.163911 0.147745 -0.107607
380 1 1 1.13132 21.2802 40.7891 -0.112584 -0.0768852 -0.0759325
381 1 3 2.88221 23.5251 37.4711 -0.0603938 -0.0490093 0.0151374
382 1 1 2.33739 22.8821 37.9793 0.10427 0.0449846 -0.0971016
383 1 1 2.60972 22.2184 38.6144 -0.0327521 0.0205025 -0.00864486
384 1 1 2.0183 21.9296 39.1268 0.024371 0.0379771 -0.00184987
385 1 3 4.14767 24.9587 37.2934 -0.110347 0.0112919 0.0021727
386 1 1 4.94936 25.3158 37.6471 -0.0406667 -0.0638438 0.0460465
387 1 1 5.75478 25.8952 38.0274 0.0730382 0.0431479 -0.153984
388 1 1 7.19241 27.7144 39.7546 -0.120674 0.00957122 0.189304
389 1 3 7.77387 27.8905 40.4972 0.223793 -0.0547335 0.0286031
390 1 1 8.21584 28.1172 41.3882 -0.0625804 -0.0411408 0.145806
391 1 1 8.59485 28.2479 42.2549 0.0485569 0.116897 0.0231754
392 1 1 8.92896 28.1768 43.2442 -0.0259058 0.101928 -0.15512
393 1 3 9.09899 27.9994 44.2263 -0.0640575 -0.0594693 0.125204
394 1 1 9.27688 27.7012 45.1321 -0.0371426 -0.00512747 0.0891459
395 1 1 9.37584 27.2345 46.1257 0.0323959 0.15813 -0.0773509
396 1 1 9.46664 26.5373 46.9874 -0.141497 -0.185643 0.0543697
397 1 3 6.58472 26.38 38.6375 -0.00968378 -0.228122 -0.0814492
398 1 1 7.24876 26.9436 39.2003 -0.0216542 -0.0483718 0.0375695
399 1 1 1.29461 21.0426 41.6162 -0.0374842 0.150466 -0.00810889
400 1 1 1.49576 20.9704 42.5487 -0.0562134 0.129751 0.0669972
401 1 3 1.89435 20.8604 43.461 -0.00579394 0.049055 -0.290972
402 1 1 9.56587 25.8652 47.6776 0.0595646 0.0814293 0.0234253
403 1 1 2.10529 21.0735 44.4558 -0.0943529 -0.0885471 -0.28164
404 1 1 8.78862 25.5496 48.1356 -0.0220853 0.0566968 -0.0964468
405 1 3 7.9147 25.0871 48.486 0.104668 0.131437 0.11412
406 1 1 7.04281 24.6173 48.5882 -0.122743 -0.0708446 -0.0852326
407 1 1 2.4346 21.3152 45.3573 0.0440919 -0.0784656 0.0880129
408 1 1 6.23819 24.0947 48.4877 0.111848 -0.141628 0.0104079
409 1 3 5.37808 23.6341 48.2999 0.000834892 0.0993661 0.0216178
410 1 1 4.64068 23.0466 47.9114 -0.183318 0.073425 -0.131172
411 1 1 2.89321 21.5207 46.1474 -0.0316851 -0.155776 0.0159934
412 1 1 3.28452 22.015 46.866 -0.170796 -0.0178998 0.212505
413 1 3 3.897 22.4302 47.4458 -0.0658393 0.119413 0.0399845
414 1 1 3.6125 23.4484 37.5748 0.259687 -0.0262631 0.0239247
415 1 1 4.28773 23.8626 37.5233 -0.0531286 0.0883848 0.0267358
416 1 1 1.8699 21.2619 39.9447 0.0984985 0.0408464 0.0963777
417 1 3 2.02292 20.8617 40.923 -0.19161 0.197269 -0.0493425
418 1 1 3.29689 22.7281 37.9869 -0.0582927 -0.037466 0.0370098
419 1 1 3.41365 22.0609 38.5912 0.0671678 0.098583 -0.0177082
420 1 1 2.89741 21.538 39.3055 -0.023422 0.0290258 -0.00206787
421 1 3 4.9612 24.4317 37.6203 0.172605 0.0554725 0.0170198
422 1 1 5.80572 24.9319 37.9334 -0.0768765 0.0561453 0.0369367
423 1 1 6.50535 25.4762 38.325 0.0360199 -0.0100938 -0.0455963
424 1 1 7.96846 27.2299 39.891 0.0376422 -0.0407861 0.0844285
425 1 3 8.65352 27.4687 40.679 -0.0748821 -0.0421505 0.124137
426 1 1 9.08014 27.7512 41.5584 0.104968 -0.101814 0.0304912
427 1 1 9.47938 27.8057 42.4996 0.0380015 -0.0169104 0.0867956
428 1 1 9.74783 27.7362 43.486 -0.0154185 -0.03587 0.0472776
429 1 3 10.2836 26.1037 47.0992 -0.0211814 0.0763945 -0.0310619
430 1 1 9.972 27.5481 44.4121 0.0594664 -0.0354463 0.0596671
431 1 1 10.0806 27.2661 45.4238 0.1688 0.0661912 0.101934
432 1 1 10.1961 26.7593 46.3256 -0.11519 -0.133809 0.0215593
433 1 3 7.33589 26.0007 38.8399 0.0409838 0.0928058 -0.0846674
434 1 1 8.09041 26.4731 39.3632 -0.0960828 0.0405826 0.11779
435 1 1 2.11832 20.5963 41.8661 0.0772613 0.0488266 0.0118869
436 1 1 2.3305 20.4893 42.8433 0.180496 0.0413644 -0.0145747
437 1 3 2.61611 20.5075 43.8813 -0.019781 0.180944 -0.0979489
438 1 1 10.4408 25.4107 47.8338 -0.235869 -0.0991856 -0.207506
439 1 1 9.62598 25.0209 48.3078 -0.0628278 0.0886929 -0.143515
440 1 1 2.97072 20.5618 44.7165 0.0234868 -0.0993413 -0.077223
441 1 3 8.71564 24.5928 48.7009 0.113578 0.123021 -0.0102039
442 1 1 7.8853 24.1319 48.8232 -0.0687123 -0.115378 -0.181465
443 1 1 7.04726 23.5612 48.8458 -0.243719 0.00588838 -0.0349013
444 1 1 3.28534 20.8145 45.6395 0.00581975 0.127756 0.354226
445 1 3 6.1534 23.1 48.5334 -0.0146874 -0.151097 -0.0542692
446 1 1 5.40493 22.5893 48.1326 0.0127837 -0.0258164 -0.186128
447 1 1 4.73259 21.976 47.7091 0.199984 -0.0110175 -0.121176
448 1 1 3.69708 21.1373 46.5004 0.0568412 0.0309503 -0.0890482
449 1 3 4.16593 21.4747 47.1659 0.109021 0.100791 -0.0273059
450 1 1 4.27787 23.0289 37.8413 0.0737513 -0.0329044 0.0804492
451 1 1 5.11859 23.4649 37.8327 -0.0635475 -0.0399562 -0.0627935
452 1 1 2.77105 20.8495 40.2484 0.0653257 0.124322 0.026974
453 1 3 2.79304 20.5413 41.2494 -0.0183412 0.051928 0.0222523
454 1 1 4.20356 22.2175 38.3066 0.0540507 0.030394 0.0795523
455 1 1 3.95701 21.5875 39.043 0.0592694 0.0214246 -0.0691065
456 1 1 3.67341 20.9595 39.6532 -0.0242675 -0.155223 0.0073592
457 1 3 5.88092 24.0606 37.9626 0.0908456 0.137832 -0.0407783
458 1 1 6.71061 24.561 38.1955 0.00242857 0.0921465 -0.0931722
459 1 1 7.44304 25.0312 38.571 0.0469005 -0.0560363 0.0435759
460 1 1 8.81027 26.7226 40.0918 -0.125777 0.114697 -0.0958339
461 1 3 9.47583 27.0371 40.8955 -0.0930739 -0.101203 -0.0527668
462 1 1 9.8902 27.2531 41.7953 -0.0313181 -0.176774 0.00259248
463 1 1 10.2558 27.3616 42.6662 0.0314267 0.0767492 -0.116401
464 1 1 10.6324 27.3038 43.6295 -0.0730864 0.187035 -0.0300329
465 1 3 11.1677 25.6587 47.3746 -0.131673 -0.112248 -0.176202
466 1 1 11.0479 26.2239 46.586 0.00113965 -0.127869 -0.0193169
467 1 1 10.723 27.1251 44.6662 -0.0391789 -0.0557043 0.165291
468 1 1 10.9055 26.7812 45.6466 -0.0070755 -0.119076 0.0034658
469 1 3 8.22717 25.569 38.9916 0.0639816 -0.177513 -0.0866593
470 1 1 8.92771 25.9987 39.6243 -0.113056 0.0238304 -0.103745
471 1 1 3.03375 20.1559 42.1958 0.0499868 0.00282681 0.155187
472 1 1 3.12847 20.0942 43.2239 0.0513666 0.0994629 0.110743
473 1 3 3.50894 20.0336 44.0605 0.158169 -0.0584381 -0.0223503
474 1 1 11.1852 24.9054 48.1854 -0.0801028 -0.027027 0.000600485
475 1 1 10.413 24.546 48.5762 -0.166953 -0.114627 0.0962566
476 1 1 9.63288 24.189 48.8873 0.00558255 0.0620477 0.0495625
477 1 3 3.81404 20.1512 45.0402 -0.0604043 0.00526431 -0.096284
478 1 1 8.80011 23.6675 48.9838 0.0491172 0.0272207 -0.053082
479 1 1 7.94464 23.1289 48.9683 -0.0130303 0.200512 -0.0815056
480 1 1 7.04915 22.6447 48.7733 -0.0920003 -0.152087 0.118476