ITEM: TIMESTEP
0
ITEM: NUMBER OF ATOMS
39148
ITEM: BOX BOUNDS pp pp pp
0 62
0 62
0 62
ITEM: ATOMS id mol type x y z 
1 1 1 8.57409 19.6714 25.9397 
2 1 1 9.36365 19.617 26.3237 
3 1 1 9.1257 20.3667 25.7279 
4 1 1 9.95763 20.289 26.0819 
5 1 1 8.32721 20.3273 25.27 
6 1 1 9.75094 21.0155 25.3791 
7 1 1 10.6869 20.9359 25.6903 
8 1 1 8.68788 18.9051 26.3762 
9 1 1 9.56342 18.7356 26.7671 
10 1 1 10.1827 19.4402 26.6145 
11 1 1 10.7802 20.097 26.3391 
12 1 1 11.5255 20.4872 26.0922 
13 1 1 7.89171 18.9952 25.8458 
14 1 1 7.89125 19.667 25.4412 
15 1 1 7.58548 20.0425 24.835 
16 1 1 8.89016 20.9926 24.9832 
17 1 1 8.0532 20.8103 24.492 
18 1 1 11.5587 21.0689 25.5468 
19 1 1 11.1919 21.5481 24.9987 
20 1 1 10.3699 21.5737 24.8755 
21 1 1 9.51338 21.5526 24.5447 
22 1 1 7.4515 18.3557 25.6981 
23 1 1 8.23371 18.1744 26.31 
24 1 1 9.04537 17.9986 26.742 
25 1 1 9.80833 17.782 27.0072 
26 1 1 10.4669 18.4691 27.0029 
27 1 1 11.0924 19.1479 26.8111 
28 1 1 12.3238 20.7697 25.6636 
29 1 1 11.7434 19.6771 26.5629 
30 1 1 12.4479 20.0665 26.1496 
31 1 1 7.16451 19.0718 25.0775 
32 1 1 7.02668 19.7466 24.3799 
33 1 1 7.3487 20.4559 24.0287 
34 1 1 8.63055 21.4411 24.0483 
35 1 1 7.79114 21.0861 23.6031 
36 1 1 12.1247 21.3619 25.0691 
37 1 1 11.8334 21.8358 24.4117 
38 1 1 12.9389 21.0429 25.0721 
39 1 1 10.9665 22 24.2044 
40 1 1 10.1816 22.026 23.9668 
41 1 1 9.30056 21.942 23.5426 
42 1 1 6.90059 18.0559 25.1947 
43 1 1 7.24609 17.4076 25.654 
44 1 1 7.86889 17.3661 26.1534 
45 1 1 8.55339 17.3986 26.5443 
46 1 1 9.19021 17.0163 26.8235 
47 1 1 9.96033 16.7578 27.0165 
48 1 1 10.6803 17.5089 27.1514 
49 1 1 11.4147 18.2232 27.0531 
50 1 1 12.0617 18.7883 26.8435 
51 1 1 13.1037 20.3765 25.6137 
52 1 1 12.6898 19.2773 26.5024 
53 1 1 13.1681 19.7366 26.0539 
54 1 1 6.56742 18.4282 24.5893 
55 1 1 6.40413 17.4292 24.506 
56 1 1 6.58112 19.1238 24.1866 
57 1 1 6.72067 19.8439 23.6366 
58 1 1 6.19256 18.5199 23.6972 
59 1 1 7.09166 20.5794 23.1264 
60 1 1 8.42054 21.6723 23.0993 
61 1 1 7.60185 21.1809 22.6576 
62 1 1 11.5641 22.1549 23.7232 
63 1 1 12.6903 21.5902 24.4189 
64 1 1 12.3788 21.9961 23.6925 
65 1 1 13.7063 20.5418 25.0374 
66 1 1 13.4795 21.174 24.3805 
67 1 1 10.8851 22.2834 23.3666 
68 1 1 10.0117 22.2892 22.9845 
69 1 1 9.11549 22.0885 22.5755 
70 1 1 6.82507 17.0574 25.1308 
71 1 1 7.39882 16.6226 25.6857 
72 1 1 8.37019 16.4436 26.3336 
73 1 1 9.2651 16.1019 26.6583 
74 1 1 10.1335 15.9103 26.8395 
75 1 1 10.8731 16.572 27.0845 
76 1 1 11.6408 17.241 27.1072 
77 1 1 12.3425 17.9168 26.9346 
78 1 1 12.9956 18.421 26.6158 
79 1 1 13.8052 19.8198 25.5747 
80 1 1 13.6502 18.9564 26.1331 
81 1 1 14.3688 19.9272 24.9342 
82 1 1 6.46858 16.425 24.3994 
83 1 1 6.09609 17.7247 23.7633 
84 1 1 6.15542 16.9437 23.8861 
85 1 1 6.26154 19.1139 23.2407 
86 1 1 6.52078 19.8677 22.7084 
87 1 1 5.98236 18.2706 22.9658 
88 1 1 6.9634 20.5652 22.156 
89 1 1 8.27032 21.6877 22.0985 
90 1 1 7.47495 21.0586 21.6359 
91 1 1 11.7495 22.2966 22.8758 
92 1 1 13.165 21.6878 23.6405 
93 1 1 12.7223 22.0456 22.8679 
94 1 1 14.2107 20.6415 24.2786 
95 1 1 13.9173 21.2246 23.5579 
96 1 1 10.8115 22.421 22.4172 
97 1 1 9.87941 22.3337 22.033 
98 1 1 8.94459 22.0002 21.5242 
99 1 1 6.97814 16.1142 25.0519 
100 1 1 7.74551 15.7012 25.6294 
101 1 1 8.60462 15.4012 26.0648 
102 1 1 9.51464 15.1618 26.3457 
103 1 1 10.9708 15.7894 26.8858 
104 1 1 10.5188 15.2058 26.6018 
105 1 1 11.8471 16.1335 26.9132 
106 1 1 12.5774 16.9734 26.8627 
107 1 1 13.1667 17.5908 26.6189 
108 1 1 13.6933 18.0357 26.2854 
109 1 1 14.8929 19.9775 24.1725 
110 1 1 14.3883 19.0913 25.4591 
111 1 1 14.2768 18.216 25.812 
112 1 1 14.9987 19.2064 24.7353 
113 1 1 6.16823 16.2251 23.5341 
114 1 1 6.63899 15.6401 24.2157 
115 1 1 5.91554 17.091 22.9082 
116 1 1 6.04044 16.157 22.5939 
117 1 1 6.09934 18.9163 22.3399 
118 1 1 6.4449 19.6786 21.7359 
119 1 1 5.91177 17.9309 22.0648 
120 1 1 6.96112 20.3588 21.1892 
121 1 1 8.14699 21.4922 21.1139 
122 1 1 7.47164 20.7987 20.7261 
123 1 1 11.5662 22.3723 21.8695 
124 1 1 12.2991 22.2259 22.1411 
125 1 1 13.5038 21.6858 22.7989 
126 1 1 13.0167 21.9786 22.0516 
127 1 1 14.6763 20.6172 23.4955 
128 1 1 14.3718 21.1162 22.7626 
129 1 1 15.3375 20.0522 23.391 
130 1 1 8.83053 21.7473 20.6026 
131 1 1 10.7369 22.3795 21.5021 
132 1 1 9.71613 22.1429 20.8264 
133 1 1 7.26921 15.2149 24.8271 
134 1 1 8.05567 14.9076 25.3772 
135 1 1 10.1795 14.6202 26.1926 
136 1 1 8.84906 14.6485 25.7178 
137 1 1 9.59854 14.2796 25.7823 
138 1 1 11.4508 15.1973 26.5958 
139 1 1 10.9622 14.547 26.2242 
140 1 1 12.3661 15.3041 26.4687 
141 1 1 12.9038 16.1419 26.5908 
142 1 1 13.323 16.839 26.5108 
143 1 1 14.0276 17.2314 26.0628 
144 1 1 15.5435 19.325 24.0093 
145 1 1 14.8916 18.3658 25.2209 
146 1 1 14.715 17.6477 25.5242 
147 1 1 15.5761 18.5384 24.52 
148 1 1 6.36429 15.4635 23.2575 
149 1 1 6.91503 14.8496 23.8877 
150 1 1 5.92302 16.9558 21.8096 
151 1 1 6.31013 15.3363 22.3958 
152 1 1 6.10817 16.0135 21.5795 
153 1 1 6.128 18.7155 21.4066 
154 1 1 6.54867 19.4731 20.8119 
155 1 1 6.00855 17.7677 21.1837 
156 1 1 7.11842 20.1096 20.2421 
157 1 1 8.17066 21.1859 20.2304 
158 1 1 7.67105 20.6027 19.9616 
159 1 1 11.5061 22.3236 21.1032 
160 1 1 12.4135 22.1201 21.2139 
161 1 1 13.3467 21.7917 21.3288 
162 1 1 13.9636 21.5119 21.9047 
163 1 1 15.1157 20.5795 22.702 
164 1 1 14.7991 20.9864 22.0757 
165 1 1 16.0118 19.4866 23.2364 
166 1 1 15.7345 20.0695 22.7102 
167 1 1 9.42517 21.7711 20.0518 
168 1 1 8.81035 21.3402 19.7574 
169 1 1 10.868 22.2292 20.5657 
170 1 1 10.2474 21.9274 19.9181 
171 1 1 7.65416 14.4145 24.4512 
172 1 1 8.40831 14.1171 24.8947 
173 1 1 10.4774 14.036 25.7768 
174 1 1 9.16569 13.821 25.1154 
175 1 1 9.94751 13.7034 25.3231 
176 1 1 11.291 13.9261 25.6825 
177 1 1 11.8615 14.5403 26.1361 
178 1 1 12.7463 14.6192 25.9218 
179 1 1 13.2782 15.403 26.1322 
180 1 1 13.71 16.2443 26.1768 
181 1 1 14.3953 16.3319 25.7524 
182 1 1 14.8618 16.8573 25.4725 
183 1 1 16.2417 18.6464 23.7656 
184 1 1 16.6096 19.0127 22.9705 
185 1 1 15.438 17.5786 24.9692 
186 1 1 16.0805 17.9507 24.3035 
187 1 1 6.7435 14.6574 22.9976 
188 1 1 7.39765 14.0768 23.5189 
189 1 1 6.06198 16.8763 20.9423 
190 1 1 6.29922 16.1603 20.5671 
191 1 1 6.71362 14.6027 22.2062 
192 1 1 6.46703 15.0757 21.633 
193 1 1 6.40897 15.4894 20.9574 
194 1 1 6.35314 18.544 20.4741 
195 1 1 6.83196 19.2144 19.8691 
196 1 1 6.30585 17.6725 20.2307 
197 1 1 7.55995 19.9351 19.357 
198 1 1 8.26428 20.7085 19.3954 
199 1 1 11.7671 22.1125 20.4089 
200 1 1 12.4871 21.8981 20.2475 
201 1 1 13.2095 21.7392 20.5829 
202 1 1 13.9843 21.4806 20.8909 
203 1 1 14.835 21.054 21.2228 
204 1 1 15.6351 20.4715 21.8196 
205 1 1 16.4725 19.662 22.2592 
206 1 1 9.63905 21.4319 19.3537 
207 1 1 9.04978 20.8502 18.9591 
208 1 1 11.126 21.8979 19.7296 
209 1 1 10.4847 21.4775 19.1275 
210 1 1 8.17474 13.7053 24.0342 
211 1 1 8.94322 13.4229 24.3185 
212 1 1 10.6996 13.4701 25.1627 
213 1 1 9.87668 13.2065 24.5475 
214 1 1 11.5368 13.4031 25.0085 
215 1 1 12.171 13.9385 25.5268 
216 1 1 17.1667 18.857 22.3868 
217 1 1 17.018 18.2926 23.1297 
218 1 1 13.0438 13.9676 25.2683 
219 1 1 13.6243 14.629 25.5347 
220 1 1 14.2064 15.4706 25.651 
221 1 1 15.0095 16.0005 25.2949 
222 1 1 15.6109 16.5475 24.9321 
223 1 1 16.6805 17.7479 23.7911 
224 1 1 16.2533 17.112 24.3699 
225 1 1 8.04042 13.4141 23.1246 
226 1 1 7.30708 13.8991 22.436 
227 1 1 6.43633 16.8696 19.9694 
228 1 1 6.64437 16.1085 19.8521 
229 1 1 6.70972 15.4246 20.2515 
230 1 1 7.00125 14.31 21.488 
231 1 1 6.8095 14.8307 20.8379 
232 1 1 6.70089 18.2846 19.5911 
233 1 1 7.24574 18.8508 19.046 
234 1 1 6.77917 17.4341 19.3382 
235 1 1 7.93799 19.236 18.5324 
236 1 1 8.41102 20.1195 18.7156 
237 1 1 12.0039 21.7815 19.6162 
238 1 1 12.9628 21.5529 19.5558 
239 1 1 13.8925 21.393 19.9855 
240 1 1 14.7653 21.0912 20.3563 
241 1 1 15.6172 20.6559 20.7976 
242 1 1 16.4512 20.1035 21.2487 
243 1 1 17.1856 19.4069 21.5844 
244 1 1 9.85555 20.9165 18.6419 
245 1 1 9.26143 20.2173 18.2867 
246 1 1 11.4165 21.4421 18.9259 
247 1 1 10.7618 20.9424 18.3789 
248 1 1 8.76947 13.1439 23.5381 
249 1 1 9.46616 12.9563 23.7799 
250 1 1 10.8343 13.0008 24.4044 
251 1 1 10.2273 12.7578 23.7382 
252 1 1 11.783 12.9175 24.2393 
253 1 1 12.4262 13.3847 24.8024 
254 1 1 17.8486 18.5994 21.7981 
255 1 1 17.6762 18.0295 22.5496 
256 1 1 17.3757 17.4005 23.2227 
257 1 1 13.2981 13.3799 24.6228 
258 1 1 13.8963 13.9593 24.9521 
259 1 1 14.3557 14.5863 25.1547 
260 1 1 15.0768 15.0486 24.9748 
261 1 1 15.723 15.5738 24.7109 
262 1 1 16.354 16.2127 24.322 
263 1 1 16.9084 16.797 23.8061 
264 1 1 8.66536 12.979 22.7873 
265 1 1 8.13598 13.2123 22.1936 
266 1 1 7.63868 13.6288 21.4398 
267 1 1 7.03181 16.5041 19.1157 
268 1 1 7.0932 15.5386 19.5003 
269 1 1 7.1809 14.8036 20.0277 
270 1 1 7.37233 14.1683 20.6844 
271 1 1 7.19264 17.9826 18.8433 
272 1 1 7.67232 18.4552 18.4575 
273 1 1 7.32142 17.2433 18.6747 
274 1 1 8.3016 18.626 18.0114 
275 1 1 8.74384 19.4505 18.0774 
276 1 1 12.3076 21.3253 18.7598 
277 1 1 13.0868 21.1621 18.6252 
278 1 1 13.8405 21.169 18.9817 
279 1 1 14.6317 21.0387 19.4187 
280 1 1 15.5056 20.7536 19.8641 
281 1 1 16.3368 20.3542 20.297 
282 1 1 17.14 19.7948 20.6865 
283 1 1 17.9286 19.0934 20.9785 
284 1 1 10.1643 20.3496 17.9819 
285 1 1 9.67982 19.6043 17.6725 
286 1 1 11.6791 20.9527 18.1796 
287 1 1 11.0113 20.4081 17.6987 
288 1 1 9.54861 12.6862 22.933 
289 1 1 11.098 12.609 23.6259 
290 1 1 10.515 12.4901 23.0842 
291 1 1 18.5733 18.289 21.2034 
292 1 1 12.0711 12.4777 23.4937 
293 1 1 12.6894 12.8467 24.0911 
294 1 1 18.3902 17.7295 21.9598 
295 1 1 18.0834 17.0914 22.6601 
296 1 1 17.6158 16.4706 23.2352 
297 1 1 13.6143 12.8492 23.9563 
298 1 1 14.0616 13.3964 24.3955 
299 1 1 14.86 13.9927 24.537 
300 1 1 15.7165 14.579 24.3668 
301 1 1 16.3923 15.221 24.1177 
302 1 1 17.0374 15.8466 23.7142 
303 1 1 8.05267 13.5568 20.5893 
304 1 1 8.94474 12.7964 22.0827 
305 1 1 8.44333 13.0854 21.3275 
306 1 1 7.68778 16.6226 18.3879 
307 1 1 7.56764 15.7643 18.7758 
308 1 1 7.63175 14.9273 19.2781 
309 1 1 7.79492 14.1756 19.8777 
310 1 1 7.9269 17.621 18.1306 
311 1 1 8.68508 18.0154 17.6175 
312 1 1 9.21044 18.7272 17.4929 
313 1 1 12.6514 20.8389 17.932 
314 1 1 13.6338 20.8692 18.1003 
315 1 1 14.5518 20.8532 18.4853 
316 1 1 15.3973 20.7343 18.893 
317 1 1 16.2682 20.4598 19.3181 
318 1 1 17.078 20.0491 19.7068 
319 1 1 17.9042 19.4623 20.0777 
320 1 1 18.6574 18.7652 20.3713 
321 1 1 10.5146 19.7475 17.3656 
322 1 1 10.0869 19.0973 17.1725 
323 1 1 11.8538 20.4215 17.4299 
324 1 1 11.2627 19.9078 17.1275 
325 1 1 9.694 12.5145 21.9537 
326 1 1 10.3526 12.3453 22.3088 
327 1 1 11.3197 12.2663 22.7421 
328 1 1 12.3048 12.1045 22.8177 
329 1 1 19.2921 17.9864 20.6181 
330 1 1 19.1098 17.4172 21.3794 
331 1 1 13.0466 12.3032 23.2839 
332 1 1 18.8143 16.7627 22.0752 
333 1 1 18.367 16.1361 22.6696 
334 1 1 17.7611 15.4816 23.1661 
335 1 1 13.9723 12.42 23.3509 
336 1 1 14.6698 12.9882 23.7928 
337 1 1 15.6049 13.5932 23.8762 
338 1 1 16.3465 14.2401 23.7829 
339 1 1 17.0852 14.8591 23.5252 
340 1 1 8.25377 16.7204 17.8808 
341 1 1 8.48174 13.6106 19.713 
342 1 1 8.83706 13.0608 20.3714 
343 1 1 9.37117 12.6382 21.1241 
344 1 1 8.15295 15.9538 18.1191 
345 1 1 8.18672 15.0738 18.5119 
346 1 1 8.27277 14.2911 19.0686 
347 1 1 8.90301 13.6601 18.9311 
348 1 1 8.71296 17.2594 17.5029 
349 1 1 9.31096 17.7734 17.1231 
350 1 1 10.0705 18.33 16.7972 
351 1 1 12.6099 20.3228 17.1564 
352 1 1 13.4273 20.4663 17.3062 
353 1 1 14.3566 20.5644 17.5767 
354 1 1 15.2581 20.5501 17.9151 
355 1 1 16.1632 20.411 18.338 
356 1 1 17.0241 20.1287 18.7309 
357 1 1 17.8195 19.7008 19.0987 
358 1 1 18.6385 19.1316 19.4818 
359 1 1 19.3992 18.4389 19.7593 
360 1 1 10.9507 19.0638 16.7124 
361 1 1 12.0267 19.7045 16.631 
362 1 1 10.289 12.2712 21.4293 
363 1 1 11.1026 12.0439 21.7555 
364 1 1 12.062 11.8294 22.0407 
365 1 1 12.9522 11.8191 22.4238 
366 1 1 20.0431 17.6351 20.0283 
367 1 1 19.8469 17.1001 20.7852 
368 1 1 19.5345 16.4546 21.4686 
369 1 1 13.8257 11.9273 22.6743 
370 1 1 19.0977 15.812 22.0728 
371 1 1 18.5196 15.1442 22.5783 
372 1 1 17.8478 14.5126 22.9505 
373 1 1 14.6888 12.2534 22.9972 
374 1 1 15.5077 12.7549 23.2312 
375 1 1 16.3074 13.3004 23.2896 
376 1 1 17.0941 13.9195 23.2057 
377 1 1 8.83311 16.195 17.4488 
378 1 1 9.21024 13.0813 19.5404 
379 1 1 9.53497 12.6736 20.1491 
380 1 1 10.2559 12.263 20.4302 
381 1 1 8.76182 15.199 17.8124 
382 1 1 8.79215 14.3998 18.3003 
383 1 1 9.41948 13.717 18.1959 
384 1 1 9.51884 13.1724 18.8036 
385 1 1 9.41929 16.9016 16.9278 
386 1 1 10.0977 17.5224 16.5064 
387 1 1 10.8782 18.1533 16.2217 
388 1 1 13.0731 19.9396 16.5918 
389 1 1 14.0377 20.1531 16.7532 
390 1 1 15.0291 20.2572 17.0152 
391 1 1 15.9753 20.234 17.3413 
392 1 1 16.8834 20.1041 17.7286 
393 1 1 17.7435 19.7985 18.0937 
394 1 1 18.5586 19.3815 18.4987 
395 1 1 19.3964 18.7947 18.8864 
396 1 1 20.1476 18.1138 19.1921 
397 1 1 11.7362 18.7649 16.0534 
398 1 1 12.6877 19.2624 16.0056 
399 1 1 10.9914 11.9477 20.7599 
400 1 1 11.8239 11.6597 21.165 
401 1 1 12.7367 11.4869 21.4979 
402 1 1 20.7717 17.3363 19.4158 
403 1 1 13.651 11.4829 21.8577 
404 1 1 20.5833 16.7736 20.2066 
405 1 1 20.2892 16.1433 20.8743 
406 1 1 19.8275 15.4915 21.4731 
407 1 1 14.5583 11.652 22.2044 
408 1 1 19.2501 14.8369 21.9884 
409 1 1 18.5925 14.183 22.3662 
410 1 1 17.8498 13.5754 22.6271 
411 1 1 15.4273 12.0013 22.4683 
412 1 1 16.2511 12.4594 22.6392 
413 1 1 17.0745 12.9536 22.6959 
414 1 1 9.31201 15.3297 17.2272 
415 1 1 9.67339 15.9401 16.7562 
416 1 1 10.0741 12.5387 19.3408 
417 1 1 10.8951 11.9981 19.7135 
418 1 1 9.42422 14.4965 17.515 
419 1 1 9.929 13.7028 17.5716 
420 1 1 10.1979 12.9452 18.1717 
421 1 1 10.1727 16.5821 16.3249 
422 1 1 10.8279 17.2398 15.9471 
423 1 1 11.5835 17.8498 15.6972 
424 1 1 13.7388 19.5965 16.0253 
425 1 1 14.7364 19.8002 16.1669 
426 1 1 15.7579 19.9317 16.4461 
427 1 1 16.7025 19.8991 16.757 
428 1 1 17.6154 19.7583 17.1263 
429 1 1 20.855 17.7919 18.5988 
430 1 1 18.4917 19.4647 17.4994 
431 1 1 19.2957 19.0566 17.9122 
432 1 1 20.1299 18.4688 18.3104 
433 1 1 12.4598 18.4375 15.5128 
434 1 1 13.4399 18.9161 15.4408 
435 1 1 11.6632 11.6037 20.1783 
436 1 1 12.5277 11.3148 20.5868 
437 1 1 13.4459 11.1713 20.9716 
438 1 1 21.509 17.0111 18.8022 
439 1 1 21.3243 16.4502 19.5953 
440 1 1 14.3643 11.1907 21.307 
441 1 1 21.0186 15.8116 20.2882 
442 1 1 20.547 15.1733 20.8584 
443 1 1 19.9775 14.5198 21.3675 
444 1 1 15.2846 11.3724 21.6435 
445 1 1 19.3186 13.8635 21.7617 
446 1 1 18.5789 13.2436 22.0064 
447 1 1 17.7822 12.6207 22.093 
448 1 1 16.1303 11.7049 21.8695 
449 1 1 16.9675 12.1151 22.0515 
450 1 1 9.89077 14.9898 16.789 
451 1 1 10.3564 15.647 16.2068 
452 1 1 10.87 12.2226 18.6783 
453 1 1 11.5739 11.6892 19.1678 
454 1 1 10.207 14.1205 16.8988 
455 1 1 10.5488 13.2989 17.2301 
456 1 1 10.9923 12.5528 17.6625 
457 1 1 10.9098 16.2587 15.7589 
458 1 1 11.5782 16.9042 15.3906 
459 1 1 12.3375 17.5239 15.1502 
460 1 1 14.456 19.2334 15.4665 
461 1 1 15.4748 19.4603 15.6149 
462 1 1 16.4849 19.5736 15.865 
463 1 1 17.4295 19.5494 16.1686 
464 1 1 18.3494 19.399 16.5186 
465 1 1 21.6058 17.4456 18.0057 
466 1 1 20.8806 18.1394 17.7052 
467 1 1 19.2286 19.119 16.9176 
468 1 1 20.03 18.7149 17.3392 
469 1 1 13.2537 18.1136 14.9499 
470 1 1 14.1883 18.5567 14.8727 
471 1 1 12.3845 11.2787 19.5787 
472 1 1 13.2458 10.9832 19.9884 
473 1 1 14.1768 10.859 20.3876 
474 1 1 22.2316 16.6698 18.2188 
475 1 1 22.0519 16.1221 19.0002 
476 1 1 21.7389 15.4642 19.6924 
477 1 1 15.0919 10.8793 20.7244 
478 1 1 21.2712 14.829 20.2658 
479 1 1 20.6756 14.1913 20.7554 
480 1 1 20.0363 13.5467 21.1452 
481 1 1 16.0078 11.0738 21.0462 
482 1 1 19.29 12.9255 21.417 
483 1 1 18.5129 12.3007 21.4998 
484 1 1 17.719 11.7698 21.4476 
485 1 1 16.8504 11.3955 21.3159 
486 1 1 10.5977 14.683 16.2183 
487 1 1 11.0638 15.2789 15.6513 
488 1 1 11.578 11.9121 18.142 
489 1 1 12.3192 11.3615 18.5831 
490 1 1 10.8884 13.7649 16.4149 
491 1 1 11.27 12.9398 16.7012 
492 1 1 11.7447 12.2101 17.1049 
493 1 1 11.6476 15.93 15.1634 
494 1 1 12.3216 16.5747 14.8166 
495 1 1 13.0735 17.1974 14.5727 
496 1 1 22.3336 17.1194 17.3855 
497 1 1 15.1668 18.8829 14.8993 
498 1 1 16.1821 19.1127 15.0256 
499 1 1 17.2014 19.2248 15.2544 
500 1 1 18.1467 19.2138 15.5631 
501 1 1 19.0734 19.0638 15.9206 
502 1 1 21.5996 17.7912 17.117 
503 1 1 20.7645 18.3768 16.714 
504 1 1 19.9321 18.7839 16.3269 
505 1 1 13.9899 17.7497 14.3799 
506 1 1 14.9404 18.1922 14.2684 
507 1 1 22.957 16.3273 17.6438 
508 1 1 13.1295 10.9316 18.997 
509 1 1 13.9974 10.668 19.412 
510 1 1 14.9176 10.555 19.7931 
511 1 1 22.7809 15.7649 18.3992 
512 1 1 22.4645 15.1265 19.102 
513 1 1 21.9954 14.4897 19.6783 
514 1 1 15.836 10.5611 20.1244 
515 1 1 21.4016 13.8343 20.1793 
516 1 1 20.732 13.1982 20.5467 
517 1 1 20.0015 12.5967 20.8168 
518 1 1 16.7384 10.7652 20.4509 
519 1 1 19.233 11.9638 20.8903 
520 1 1 18.4452 11.4551 20.8571 
521 1 1 17.5851 11.0361 20.7065 
522 1 1 11.3115 14.3405 15.6788 
523 1 1 11.807 14.944 15.0624 
524 1 1 12.3329 11.5734 17.5148 
525 1 1 13.0452 11.037 17.9922 
526 1 1 11.6169 13.4133 15.8611 
527 1 1 11.9974 12.5902 16.1471 
528 1 1 12.4862 11.8623 16.5111 
529 1 1 12.3834 15.6244 14.5918 
530 1 1 13.0551 16.2681 14.2194 
531 1 1 13.8125 16.8624 13.9795 
532 1 1 23.0876 16.7579 16.8041 
533 1 1 22.3323 17.4595 16.5248 
534 1 1 15.9171 18.5623 14.3128 
535 1 1 16.9267 18.7682 14.4255 
536 1 1 17.942 18.8973 14.6492 
537 1 1 18.8743 18.8778 14.9556 
538 1 1 19.7908 18.7364 15.3271 
539 1 1 21.5034 18.0344 16.1232 
540 1 1 20.6685 18.4429 15.7256 
541 1 1 14.7206 17.4048 13.7812 
542 1 1 15.6566 17.8454 13.6706 
543 1 1 23.7033 15.9787 17.0471 
544 1 1 23.513 15.4233 17.8072 
545 1 1 13.8569 10.6264 18.4132 
546 1 1 14.7335 10.3694 18.8144 
547 1 1 15.6521 10.243 19.2013 
548 1 1 23.188 14.8191 18.4988 
549 1 1 22.7244 14.1623 19.0889 
550 1 1 22.1366 13.5148 19.5903 
551 1 1 16.5748 10.2699 19.5346 
552 1 1 21.4777 12.8717 19.9585 
553 1 1 20.7373 12.2599 20.2106 
554 1 1 19.9652 11.6383 20.2865 
555 1 1 17.4722 10.4174 19.8661 
556 1 1 19.1632 11.14 20.2742 
557 1 1 18.3274 10.7198 20.1502 
558 1 1 12.061 13.9986 15.1098 
559 1 1 12.5467 14.6325 14.4927 
560 1 1 13.0765 11.249 16.9208 
561 1 1 13.7876 10.7317 17.4119 
562 1 1 12.3638 13.074 15.2832 
563 1 1 12.7349 12.2601 15.5885 
564 1 1 13.2664 11.5422 15.9111 
565 1 1 13.12 15.2949 14.0006 
566 1 1 13.7983 15.9307 13.6229 
567 1 1 14.5627 16.509 13.3662 
568 1 1 23.8057 16.4395 16.2267 
569 1 1 23.0708 17.1199 15.9225 
570 1 1 22.2183 17.7125 15.5299 
571 1 1 16.5988 18.1996 13.699 
572 1 1 17.6296 18.4392 13.814 
573 1 1 18.6521 18.5647 14.0551 
574 1 1 19.5938 18.5354 14.3556 
575 1 1 20.494 18.394 14.7343 
576 1 1 21.377 18.1255 15.1322 
577 1 1 15.4428 17.0757 13.1743 
578 1 1 16.3646 17.5141 13.0779 
579 1 1 24.4254 15.6718 16.4512 
580 1 1 24.2353 15.0832 17.2288 
581 1 1 23.9043 14.4763 17.9027 
582 1 1 14.6039 10.3163 17.8256 
583 1 1 15.4919 10.0476 18.2343 
584 1 1 16.3953 9.93171 18.6017 
585 1 1 23.4605 13.8213 18.491 
586 1 1 22.8852 13.1754 19.0032 
587 1 1 22.2197 12.5289 19.3962 
588 1 1 17.3148 9.92347 18.9395 
589 1 1 21.4684 11.9114 19.6546 
590 1 1 20.6928 11.2754 19.7051 
591 1 1 19.9011 10.7773 19.6793 
592 1 1 18.2038 10.0676 19.2835 
593 1 1 19.0778 10.3863 19.5555 
594 1 1 12.7946 13.671 14.5165 
595 1 1 13.2684 14.305 13.8996 
596 1 1 13.8608 10.9346 16.3413 
597 1 1 14.5422 10.4103 16.8288 
598 1 1 13.1009 12.7445 14.7211 
599 1 1 13.4981 11.9482 14.9591 
600 1 1 14.0164 11.2295 15.3594 
601 1 1 13.8427 14.9519 13.3916 
602 1 1 14.5116 15.5786 13.0218 
603 1 1 15.254 16.1658 12.7466 
604 1 1 24.5584 16.0927 15.6348 
605 1 1 25.1863 15.3313 15.8371 
606 1 1 25.2489 15.8189 15.0526 
607 1 1 23.8082 16.808 15.3343 
608 1 1 22.9529 17.4025 14.9385 
609 1 1 22.1307 17.809 14.5418 
610 1 1 17.3305 17.8383 13.0893 
611 1 1 18.3499 18.0878 13.2324 
612 1 1 19.3902 18.2018 13.459 
613 1 1 20.3379 18.1967 13.7646 
614 1 1 21.2454 18.0795 14.1503 
615 1 1 16.1526 16.7366 12.5423 
616 1 1 17.1014 17.1663 12.4773 
617 1 1 24.9842 14.7735 16.6127 
618 1 1 24.6525 14.1443 17.3202 
619 1 1 24.1813 13.4907 17.9027 
620 1 1 15.3563 9.99168 17.2421 
621 1 1 16.2303 9.737 17.6217 
622 1 1 17.1213 9.60982 18.0146 
623 1 1 23.5964 12.8406 18.4141 
624 1 1 22.9556 12.185 18.8068 
625 1 1 22.217 11.5678 19.0739 
626 1 1 18.0266 9.57992 18.3212 
627 1 1 21.4458 10.9333 19.1551 
628 1 1 20.6646 10.4371 19.0981 
629 1 1 19.8289 10.0574 18.9718 
630 1 1 18.9329 9.75914 18.7045 
631 1 1 25.745 14.4308 15.9909 
632 1 1 25.996 15.007 15.1506 
633 1 1 13.5174 13.3372 13.9346 
634 1 1 13.9884 13.9801 13.2983 
635 1 1 14.6031 10.6338 15.764 
636 1 1 15.2593 10.0721 16.2415 
637 1 1 13.8326 12.4349 14.0976 
638 1 1 14.229 11.614 14.3993 
639 1 1 14.7111 10.9317 14.7543 
640 1 1 14.5672 14.599 12.7811 
641 1 1 15.2265 15.2277 12.3921 
642 1 1 15.9616 15.842 12.126 
643 1 1 24.5306 16.505 14.7521 
644 1 1 25.8332 15.6945 14.3537 
645 1 1 25.1761 16.2673 14.1606 
646 1 1 23.6909 17.0945 14.3462 
647 1 1 22.8544 17.5003 13.9411 
648 1 1 21.9665 17.7762 13.5434 
649 1 1 18.068 17.5067 12.4882 
650 1 1 19.0713 17.7461 12.6188 
651 1 1 20.0674 17.8843 12.8489 
652 1 1 21.0651 17.8991 13.1715 
653 1 1 16.8827 16.4094 11.9512 
654 1 1 17.8227 16.8186 11.883 
655 1 1 25.4094 13.8144 16.7133 
656 1 1 24.9314 13.1732 17.3426 
657 1 1 24.3456 12.5184 17.8519 
658 1 1 16.0709 9.67126 16.6237 
659 1 1 16.9557 9.42982 17.0368 
660 1 1 17.8597 9.31851 17.3797 
661 1 1 23.6971 11.8515 18.2257 
662 1 1 22.9625 11.2418 18.4666 
663 1 1 22.192 10.6116 18.5498 
664 1 1 18.7777 9.30831 17.7464 
665 1 1 21.4257 10.0987 18.4955 
666 1 1 20.5629 9.71502 18.3665 
667 1 1 19.6884 9.44946 18.1146 
668 1 1 26.1192 13.4323 16.1508 
669 1 1 26.4717 14.0541 15.4256 
670 1 1 26.4042 15.1298 14.4007 
671 1 1 26.3534 15.5178 13.7632 
672 1 1 26.7432 14.4935 14.7212 
673 1 1 14.2265 13.0276 13.3134 
674 1 1 14.71 13.6147 12.697 
675 1 1 15.2899 10.285 15.1471 
676 1 1 15.9847 9.752 15.6194 
677 1 1 14.5233 12.0998 13.4879 
678 1 1 14.9433 11.2647 13.7919 
679 1 1 15.425 10.5519 14.1478 
680 1 1 15.2799 14.2531 12.1662 
681 1 1 15.9425 14.8855 11.7838 
682 1 1 16.6793 15.4911 11.5346 
683 1 1 24.4276 16.8077 13.7626 
684 1 1 25.8148 16.0276 13.4955 
685 1 1 25.1127 16.526 13.1735 
686 1 1 23.5987 17.2002 13.3471 
687 1 1 22.6962 17.4695 12.9527 
688 1 1 21.7937 17.5847 12.5682 
689 1 1 18.7989 17.1613 11.899 
690 1 1 19.8194 17.436 12.0276 
691 1 1 20.8175 17.5786 12.2575 
692 1 1 17.6036 16.0479 11.3768 
693 1 1 18.5885 16.4724 11.2865 
694 1 1 25.6686 12.8222 16.7722 
695 1 1 25.0849 12.1912 17.2869 
696 1 1 24.4332 11.5392 17.6414 
697 1 1 16.8012 9.34737 16.0359 
698 1 1 17.6717 9.11744 16.4169 
699 1 1 18.5849 8.99635 16.8133 
700 1 1 23.6787 10.9195 17.8787 
701 1 1 22.8998 10.254 17.9362 
702 1 1 22.1122 9.7575 17.9084 
703 1 1 19.5149 8.97459 17.1959 
704 1 1 21.2909 9.36115 17.7733 
705 1 1 20.4213 9.08027 17.517 
706 1 1 26.3982 12.4789 16.1889 
707 1 1 26.8685 13.0696 15.5605 
708 1 1 27.2749 13.6101 14.8185 
709 1 1 26.5806 15.6484 12.9144 
710 1 1 27.0022 14.9281 13.7594 
711 1 1 27.3368 14.2596 14.1952 
712 1 1 14.9556 12.676 12.693 
713 1 1 15.4342 13.2615 12.0665 
714 1 1 16.0098 9.93074 14.5324 
715 1 1 16.7158 9.41466 15.0218 
716 1 1 15.2469 11.7457 12.8949 
717 1 1 15.6563 10.9251 13.2072 
718 1 1 16.1741 10.2054 13.5395 
719 1 1 16.0014 13.9073 11.5648 
720 1 1 16.6687 14.5332 11.181 
721 1 1 17.416 15.1371 10.946 
722 1 1 24.3221 16.9172 12.7573 
723 1 1 25.7987 16.207 12.5455 
724 1 1 25.0769 16.5799 12.1985 
725 1 1 23.4374 17.1767 12.3519 
726 1 1 22.5215 17.2871 11.9621 
727 1 1 21.534 17.2642 11.6579 
728 1 1 19.5557 16.8519 11.3148 
729 1 1 20.5539 17.1247 11.4492 
730 1 1 18.3308 15.7111 10.795 
731 1 1 19.302 16.173 10.7252 
732 1 1 25.8378 11.8354 16.7038 
733 1 1 25.1637 11.2142 17.0924 
734 1 1 24.4251 10.5927 17.3269 
735 1 1 17.5327 9.0296 15.4479 
736 1 1 18.4076 8.75726 15.8707 
737 1 1 19.3082 8.61971 16.2718 
738 1 1 23.6565 9.9482 17.3761 
739 1 1 22.8487 9.40435 17.2914 
740 1 1 22.0329 9.02441 17.1942 
741 1 1 20.2416 8.59777 16.6169 
742 1 1 21.1374 8.73004 16.9511 
743 1 1 27.1386 12.08 15.6241 
744 1 1 26.5672 11.4754 16.1392 
745 1 1 27.5937 12.6059 15.0765 
746 1 1 27.8873 11.6776 15.0767 
747 1 1 26.3944 15.9042 12.0611 
748 1 1 27.9787 13.0428 14.4683 
749 1 1 27.1189 15.4745 12.0186 
750 1 1 27.9045 13.7051 14.0284 
751 1 1 27.422 15.0256 12.8435 
752 1 1 27.7124 14.3974 13.4873 
753 1 1 15.669 12.3285 12.0883 
754 1 1 16.1777 12.927 11.4426 
755 1 1 16.7432 9.59602 13.9576 
756 1 1 17.4705 9.07045 14.4547 
757 1 1 15.9619 11.4029 12.2954 
758 1 1 16.371 10.6013 12.5937 
759 1 1 16.9017 9.88623 12.9325 
760 1 1 16.7325 13.5649 10.9455 
761 1 1 17.3971 14.2041 10.5854 
762 1 1 18.1451 14.8128 10.3415 
763 1 1 24.1927 16.8525 11.7683 
764 1 1 25.7741 16.2402 11.6243 
765 1 1 24.9151 16.5071 11.217 
766 1 1 23.2539 16.9874 11.387 
767 1 1 22.2851 16.9526 11.0408 
768 1 1 21.2789 16.7956 10.8111 
769 1 1 20.2666 16.5337 10.7338 
770 1 1 19.0801 15.4347 10.2149 
771 1 1 20.0662 15.9097 10.1053 
772 1 1 25.8965 10.8563 16.5085 
773 1 1 25.1655 10.2829 16.774 
774 1 1 24.3789 9.69686 16.8872 
775 1 1 18.2669 8.65632 14.8896 
776 1 1 19.1343 8.38147 15.3139 
777 1 1 20.0378 8.22899 15.6805 
778 1 1 23.5925 9.10801 16.7805 
779 1 1 22.8052 8.65856 16.588 
780 1 1 21.9041 8.38782 16.3715 
781 1 1 20.9622 8.23391 16.0579 
782 1 1 24.3887 8.9674 16.3577 
783 1 1 27.3313 11.1638 15.554 
784 1 1 26.6494 10.539 15.9368 
785 1 1 28.4389 12.2125 14.4375 
786 1 1 28.04 10.8276 14.968 
787 1 1 28.4896 11.3237 14.5883 
788 1 1 29.0611 11.4763 14.0603 
789 1 1 26.5717 15.8541 11.1214 
790 1 1 27.4899 15.3881 11.1386 
791 1 1 28.5322 13.0685 13.8746 
792 1 1 27.8906 15.0085 11.9575 
793 1 1 28.4247 13.7993 13.3034 
794 1 1 28.2014 14.4604 12.6945 
795 1 1 16.3755 11.9597 11.5168 
796 1 1 16.896 12.5618 10.8433 
797 1 1 17.4821 9.2563 13.3745 
798 1 1 18.1906 8.70954 13.8855 
799 1 1 16.7053 11.0575 11.7008 
800 1 1 17.1246 10.2475 12.0014 
801 1 1 17.6092 9.53244 12.369 
802 1 1 17.4594 13.2287 10.3729 
803 1 1 18.1219 13.9038 9.99466 
804 1 1 18.8848 14.5639 9.74823 
805 1 1 24.0088 16.6425 10.8227 
806 1 1 25.6684 16.1531 10.6552 
807 1 1 24.8027 16.295 10.2893 
808 1 1 23.0673 16.651 10.4843 
809 1 1 22.0566 16.4959 10.1807 
810 1 1 21.0302 16.2436 10.0912 
811 1 1 19.8047 15.1474 9.57635 
812 1 1 20.7356 15.5984 9.51123 
813 1 1 25.9272 10.0108 16.2202 
814 1 1 25.1489 9.4722 16.3803 
815 1 1 19.0012 8.30726 14.3165 
816 1 1 19.86 8.01033 14.7316 
817 1 1 20.7724 7.85602 15.1228 
818 1 1 23.6522 8.29989 15.9863 
819 1 1 22.6661 7.99812 15.7743 
820 1 1 21.7223 7.85947 15.4829 
821 1 1 25.0868 8.82353 15.9449 
822 1 1 24.481 8.37933 15.8077 
823 1 1 26.5451 9.76264 15.7506 
824 1 1 27.3787 10.123 15.3425 
825 1 1 28.1104 10.0635 14.8027 
826 1 1 29.1443 12.3352 13.6747 
827 1 1 28.83 10.4766 14.319 
828 1 1 29.4712 10.8743 13.7899 
829 1 1 29.6965 11.6173 13.4079 
830 1 1 26.3691 15.8257 10.1043 
831 1 1 27.0698 15.5994 10.4121 
832 1 1 27.7751 15.307 10.3325 
833 1 1 28.2618 14.9867 11.0961 
834 1 1 29.1089 13.1317 13.1339 
835 1 1 28.6792 14.4972 11.8323 
836 1 1 28.9501 13.8718 12.5175 
837 1 1 17.121 11.6107 10.9324 
838 1 1 17.6473 12.2357 10.2862 
839 1 1 18.1921 8.91157 12.7871 
840 1 1 18.8982 8.35136 13.3239 
841 1 1 17.4617 10.7302 11.1274 
842 1 1 17.8659 9.88748 11.4459 
843 1 1 18.362 9.1901 11.7693 
844 1 1 18.2005 12.9357 9.78552 
845 1 1 18.8464 13.6305 9.40479 
846 1 1 19.5877 14.2425 9.1376 
847 1 1 23.8631 16.3089 9.92741 
848 1 1 25.5897 15.9536 9.79097 
849 1 1 24.6864 15.9969 9.47218 
850 1 1 22.8321 16.2063 9.63125 
851 1 1 21.7936 15.8701 9.36554 
852 1 1 20.422 14.8031 9.00536 
853 1 1 21.223 15.1427 8.87036 
854 1 1 25.9078 9.10336 15.7614 
855 1 1 19.712 7.94077 13.7383 
856 1 1 20.5745 7.65131 14.1436 
857 1 1 24.2313 7.80729 15.3111 
858 1 1 21.4812 7.48096 14.5351 
859 1 1 23.3712 7.61371 15.1643 
860 1 1 22.4131 7.48671 14.8715 
861 1 1 25.2283 8.19148 15.3652 
862 1 1 24.8866 7.59381 14.8485 
863 1 1 26.849 9.13146 15.258 
864 1 1 27.7198 9.30572 14.8147 
865 1 1 28.4514 9.51102 14.4019 
866 1 1 29.1298 9.57488 13.9734 
867 1 1 29.7394 12.4504 12.8798 
868 1 1 29.5848 10.1146 13.6801 
869 1 1 30.0299 10.725 13.1724 
870 1 1 30.3597 11.5486 12.3553 
871 1 1 26.2528 15.6777 9.35303 
872 1 1 27.1515 15.4751 9.48289 
873 1 1 28.062 15.168 9.62918 
874 1 1 28.5998 14.9022 10.258 
875 1 1 29.0443 14.4909 10.9116 
876 1 1 29.6311 13.2082 12.2946 
877 1 1 29.4175 13.8938 11.6218 
878 1 1 17.8754 11.3044 10.3611 
879 1 1 18.3853 11.9631 9.71061 
880 1 1 18.9327 8.54076 12.2309 
881 1 1 19.6054 7.99027 12.7321 
882 1 1 18.2102 10.3673 10.5641 
883 1 1 18.6328 9.55879 10.8423 
884 1 1 19.0691 8.84744 11.257 
885 1 1 18.9287 12.6379 9.20193 
886 1 1 19.5784 13.2832 8.80048 
887 1 1 20.2834 13.902 8.56189 
888 1 1 23.7058 15.8664 9.03858 
889 1 1 24.5835 15.629 8.70335 
890 1 1 25.5243 15.6095 8.83547 
891 1 1 22.7055 15.6944 8.92592 
892 1 1 22.0018 15.3399 8.72582 
893 1 1 21.0346 14.379 8.4114 
894 1 1 21.7189 14.7574 8.33761 
895 1 1 26.2282 8.38517 15.0812 
896 1 1 20.4291 7.58172 13.164 
897 1 1 21.303 7.28093 13.5599 
898 1 1 24.1336 7.217 14.4686 
899 1 1 22.2212 7.14063 13.9595 
900 1 1 23.1464 7.11559 14.2429 
901 1 1 25.6764 7.71316 14.693 
902 1 1 25.1295 7.17557 14.1972 
903 1 1 27.1816 8.50165 14.7006 
904 1 1 28.0393 8.64837 14.3155 
905 1 1 28.9138 8.75765 13.8263 
906 1 1 29.6409 9.29293 13.4183 
907 1 1 30.2278 12.4637 11.8459 
908 1 1 30.144 9.83608 12.9455 
909 1 1 30.4937 10.4946 12.385 
910 1 1 30.6877 10.9915 11.7343 
911 1 1 30.6288 11.7204 11.3876 
912 1 1 26.5145 15.4083 8.6423 
913 1 1 27.2618 15.2155 8.54323 
914 1 1 27.9537 15.066 8.86366 
915 1 1 28.6805 14.7572 9.31588 
916 1 1 29.2844 14.3473 9.98091 
917 1 1 29.7061 13.8558 10.6006 
918 1 1 30.0221 13.1975 11.3122 