ITEM: TIMESTEP
100000000
ITEM: NUMBER OF ATOMS
57074
ITEM: BOX BOUNDS pp pp pp
0 62
0 62
0 62
ITEM: ATOMS id mol type x y z vx vy vz 
1 1 1 38.9306 36.7858 3.55199 0.169008 -0.0240791 0.133647 
2 1 1 38.1857 36.6338 3.02757 0.0832812 -0.0291195 -0.0732875 
3 1 1 38.6901 37.5441 3.11601 0.0480487 0.0906911 0.0788644 
4 1 1 37.868 37.4121 2.60378 0.136301 -0.179863 0.133974 
5 1 1 39.3342 37.6106 3.76982 0.00154749 -0.0601937 0.0657263 
6 1 1 38.355 38.4026 2.93334 0.0614027 -0.103073 -0.125292 
7 1 1 37.4835 38.3211 2.47559 0.0144283 -0.0544604 0.0617672 
8 1 1 38.6073 36 3.60724 0.0722173 0.0272811 -0.104012 
9 1 1 37.7703 35.7618 3.06093 -0.0456978 0.163535 0.0180339 
10 1 1 37.4452 36.5287 2.59768 0.0882464 0.147876 0.0605582 
11 1 1 37.0598 37.3476 2.23252 -0.0817699 -0.104007 0.0365571 
12 1 1 36.6163 38.0154 2.08406 -0.0358187 -0.0880613 0.106108 
13 1 1 39.2679 36.2617 4.24146 -0.0667039 0.0509803 0.0433245 
14 1 1 39.4908 37.074 4.12183 -0.109153 -0.11574 0.0250779 
15 1 1 39.8396 37.5763 4.63114 0.0232441 -0.137362 0.00299229 
16 1 1 39.045 38.4585 3.45428 -0.101115 -0.201419 -0.254242 
17 1 1 39.6428 38.4137 4.21853 -0.109154 -0.0604783 0.0458894 
18 1 1 36.7306 38.7675 2.2156 0.0594546 -0.0102571 -0.0607047 
19 1 1 37.1505 39.37 2.49502 -0.0219999 0.0139145 0.0484865 
20 1 1 37.872 39.2449 2.81554 -0.0623113 0.036364 -0.0161969 
21 1 1 38.6229 39.2935 3.31672 -0.10178 -0.0693213 0.153045 
22 1 1 39.352 35.7731 4.78177 0.22405 0.0805474 -0.073403 
23 1 1 38.6071 35.3684 4.13754 -0.037517 -0.0657799 0.0153671 
24 1 1 37.8872 35.1595 3.6056 0.10788 0.136987 -0.0382723 
25 1 1 37.1785 34.9857 3.21752 -0.0512365 -0.0750829 -0.122207 
26 1 1 36.9236 35.6944 2.60119 -0.114625 -0.0610089 -0.010498 
27 1 1 36.5385 36.4816 2.18134 -0.175102 0.160946 -0.0165692 
28 1 1 35.9432 38.6874 2.00233 -0.0350866 -0.0752887 0.127486 
29 1 1 36.062 37.1287 1.93417 0.0438344 -0.126223 0.112959 
30 1 1 35.6002 37.8912 1.85603 0.0803259 -0.000722486 0.0172052 
31 1 1 39.8549 36.7193 4.90585 0.0288075 0.117926 -0.114009 
32 1 1 40.1457 37.4753 5.3511 -0.106542 -0.0286822 0.142569 
33 1 1 40.0455 38.3259 5.13164 0.0246608 -0.00967478 -0.093701 
34 1 1 39.3305 39.3074 3.99166 -0.0739625 -0.207634 -0.274456 
35 1 1 39.8751 39.1173 4.82447 -0.0133406 0.101072 -0.159468 
36 1 1 36.2687 39.4215 2.18532 -0.00537413 0.115469 0.109735 
37 1 1 36.5976 40.133 2.50561 0.00717216 0.136842 0.0264436 
38 1 1 35.4188 39.3747 2.07685 -0.148787 0.0470518 -0.140319 
39 1 1 37.3755 40.1823 2.86996 -0.135245 -0.20246 0.0220469 
40 1 1 38.045 40.0954 3.23061 -0.21502 0.222315 0.0176999 
41 1 1 38.7641 40.1705 3.88914 0.0832965 0.0375448 -0.0095825 
42 1 1 39.7226 35.8601 5.39024 0.00551989 -0.0330466 -0.0602098 
43 1 1 39.1259 35.1 5.38043 -0.240954 -0.120096 0.0226124 
44 1 1 38.6365 34.9008 4.8131 -0.0826552 -0.104942 -0.151678 
45 1 1 38.1297 34.7935 4.18541 0.108659 0.0209648 0.020074 
46 1 1 37.4525 34.4379 4.03213 -0.054177 0.0847762 -0.0896533 
47 1 1 36.7232 34.2809 3.75286 -0.0163172 0.135312 0.221646 
48 1 1 36.361 34.9165 2.92369 0.0261187 -0.039522 0.0260999 
49 1 1 35.9384 35.6549 2.36256 0.0560438 -0.0133906 -0.154413 
50 1 1 35.4911 36.4343 1.99158 0.0401414 0.096005 -0.0590911 
51 1 1 35.0553 38.5402 1.867 -0.0200203 -0.0910011 -0.0367749 
52 1 1 35.1221 37.1465 1.84322 -0.062469 -0.0237778 0.0330734 
53 1 1 34.8577 37.8561 1.86032 0.131358 0.173254 0.0212417 
54 1 1 40.0252 36.3946 5.83057 -0.0416035 0.0597639 -0.0276265 
55 1 1 39.7638 35.6045 6.42871 -0.206729 -0.107648 -0.0314912 
56 1 1 40.2089 37.0336 5.86059 -0.150576 0.00750171 -0.164553 
57 1 1 40.338 37.9192 5.93165 -0.150501 -0.066905 -0.0959357 
58 1 1 40.2241 36.9146 6.71716 -0.0101056 -0.00244542 -0.0942521 
59 1 1 40.2221 38.9072 5.80204 0.175583 -0.153083 0.0547978 
60 1 1 39.4339 39.9881 4.66651 0.0414066 -0.0123875 0.118738 
61 1 1 39.9032 39.7772 5.55451 -0.073784 0.04247 0.023804 
62 1 1 36.832 40.6886 2.91123 -0.0569456 -0.0222474 0.0708668 
63 1 1 35.7397 40.0949 2.2832 -0.164716 -0.100144 0.146785 
64 1 1 36.0589 40.8214 2.73689 -0.00790438 -0.0679798 -0.088383 
65 1 1 34.5186 39.1775 2.03136 0.163326 -0.0924751 0.188013 
66 1 1 34.8927 40.0138 2.31506 -0.145111 0.147506 -0.113597 
67 1 1 37.378 40.8925 3.3375 0.0424278 0.0740771 0.0839148 
68 1 1 38.1303 40.9187 3.86671 0.0225246 -0.0930616 0.0411317 
69 1 1 38.8844 40.764 4.60293 0.0471736 -0.0297056 0.143281 
70 1 1 39.3368 35.0926 5.97139 0.0497601 0.0607114 -0.0180261 
71 1 1 38.7495 34.5462 5.73495 -0.08347 0.139882 0.0839582 
72 1 1 37.8814 34.2296 5.03211 0.065548 -0.0202058 0.101665 
73 1 1 37.0567 33.859 4.62613 -0.184694 -0.0369721 0.117789 
74 1 1 36.2256 33.8503 4.33482 -0.0801448 -0.137468 -0.1608 
75 1 1 35.8607 34.3205 3.44123 0.0698094 -0.0829796 -0.15518 
76 1 1 35.4087 34.9752 2.80018 -0.135851 0.0955559 0.080169 
77 1 1 34.932 35.807 2.33453 0.0694527 0.122466 0.0302496 
78 1 1 34.5606 36.3997 2.12558 0.0442515 -0.141974 0.0285905 
79 1 1 34.2262 38.225 1.94397 -0.0581797 0.00738402 -0.00131068 
80 1 1 34.1034 37.2253 1.94029 0.147009 -0.185646 0.203248 
81 1 1 33.6958 38.8505 2.15308 0.0746898 -0.0754741 0.0912044 
82 1 1 39.3724 35.0085 7.05303 0.0421161 0.0484444 0.127804 
83 1 1 40.0511 36.2097 6.99275 0.0158529 0.00256579 -0.0226954 
84 1 1 39.7744 35.6143 7.27494 0.141018 -0.00507991 0.000596965 
85 1 1 40.3137 37.538 6.84248 0.145501 -0.00525314 0.0485277 
86 1 1 40.3617 38.52 6.70083 0.0751922 -0.0286174 -0.0638886 
87 1 1 40.2644 37.1068 7.52259 0.192967 0.0714044 -0.109554 
88 1 1 40.1617 39.4744 6.55624 0.00402258 -0.103086 0.158743 
89 1 1 39.4171 40.5994 5.52542 -0.0767903 0.0111073 -0.176683 
90 1 1 39.8333 40.303 6.53987 0.28692 0.00992788 0.154754 
91 1 1 36.6823 41.4066 3.46845 -0.0561181 0.066285 -0.0937906 
92 1 1 35.3124 40.8299 2.67777 0.105 0.154419 -0.0844835 
93 1 1 35.656 41.4337 3.13953 0.0404289 -0.017018 -0.117399 
94 1 1 34.0096 39.7929 2.31648 0.124657 0.00813787 0.109554 
95 1 1 34.4548 40.6776 2.65969 -0.0778917 0.143577 0.173622 
96 1 1 37.4318 41.588 4.08738 0.0117715 -0.0656671 -0.0714857 
97 1 1 38.2184 41.4216 4.65365 -0.0519418 -0.0364366 0.0857885 
98 1 1 38.9005 41.3678 5.54509 -0.0794367 0.208978 0.0507407 
99 1 1 38.8981 34.5089 6.56546 0.0250933 0.0651494 -0.0833255 
100 1 1 38.0674 33.963 6.17561 -0.086762 0.0203204 -0.0445031 
101 1 1 37.2457 33.5914 5.70807 0.0959288 -0.0449226 -0.0562613 
102 1 1 36.359 33.3895 5.25487 0.138097 -0.0480973 0.113897 
103 1 1 35.4433 33.9154 4.01336 -0.263775 -0.166441 -0.126122 
104 1 1 35.5871 33.5759 4.66545 0.018186 0.02386 -0.0570016 
105 1 1 34.8183 34.3486 3.49975 0.0262929 0.172452 -0.13504 
106 1 1 34.4518 35.1261 2.79204 0.116478 0.0504762 0.0523973 
107 1 1 34.0222 35.8167 2.55367 0.00148074 -0.0907298 -0.00779482 
108 1 1 33.7757 36.4301 2.26539 -0.166281 -0.209345 0.0383574 
109 1 1 33.1232 39.5554 2.42788 0.00482416 0.160855 -0.0650669 
110 1 1 33.4168 37.8658 2.14618 0.0130312 0.154465 -0.110483 
111 1 1 33.2407 36.9956 2.3283 -0.127697 0.00808207 0.0609761 
112 1 1 32.8317 38.6432 2.35472 0.159892 0.087805 0.192418 
113 1 1 39.4496 35.325 7.89692 -0.024663 0.0141931 0.014588 
114 1 1 38.8954 34.547 7.55909 0.144431 0.132695 0.00320052 
115 1 1 39.9769 36.2637 8.11538 -0.0805748 0.217638 -0.0682391 
116 1 1 39.4432 35.8246 8.83634 0.0961995 0.0192484 0.114646 
117 1 1 40.3527 37.9666 7.71164 0.0415858 0.0175304 -0.0460342 
118 1 1 40.2678 39.0112 7.57426 0.112351 -0.104586 0.15157 
119 1 1 40.1161 37.3424 8.47539 0.106571 -0.0997968 0.0394792 
120 1 1 40.0109 40.0012 7.44837 0.237842 -0.0312058 0.025914 
121 1 1 39.312 41.0281 6.43718 0.00861267 -0.0199565 0.0349307 
122 1 1 39.6547 40.685 7.32501 -0.0384744 -0.0697897 -0.0662217 
123 1 1 36.6232 42.0424 4.23247 -0.026168 -0.109726 -0.240063 
124 1 1 36.0023 41.8853 3.73276 0.153956 0.00970697 -0.144663 
125 1 1 34.7981 41.4558 3.10346 -0.00134336 -0.0457411 0.0436739 
126 1 1 35.2938 41.983 3.62353 -0.0187687 -0.0125985 -0.1166 
127 1 1 33.5199 40.4319 2.73976 0.131145 0.103467 -0.0706335 
128 1 1 33.8172 41.2114 3.1158 0.0644695 0.0326886 -0.164348 
129 1 1 32.6611 40.1719 2.80278 -0.0308803 0.0969641 -0.0796143 
130 1 1 38.7616 41.6668 6.44637 -0.101352 -0.11031 0.0529638 
131 1 1 37.3734 42.0231 4.80946 -0.248069 -0.115037 -0.0446781 
132 1 1 38.0422 41.9733 5.73861 -0.12624 -0.109522 -0.0372681 
133 1 1 38.3221 33.9865 7.16353 -0.0372839 -0.0172613 -0.192567 
134 1 1 37.506 33.544 6.62623 0.0322829 0.0716109 -0.0958565 
135 1 1 35.5294 33.3153 5.42536 0.147182 -0.0723564 0.0344128 
136 1 1 36.7694 33.3311 6.24173 0.0530372 0.048927 -0.135934 
137 1 1 35.9278 33.1929 6.11487 0.147309 0.0745438 -0.00954609 
138 1 1 34.7764 33.7912 4.35297 -0.0511849 -0.137595 0.180565 
139 1 1 34.8949 33.3999 5.11 -0.0851518 0.0992184 0.00538662 
140 1 1 33.9222 34.1251 4.1035 -0.0467984 -0.0596096 -0.082913 
141 1 1 33.7715 34.8118 3.37557 0.0350989 0.0386038 0.0260595 
142 1 1 33.6926 35.3616 2.93038 0.13971 -0.145765 0.0520133 
143 1 1 33.1326 36.127 2.74712 0.00311729 0.107285 0.0947654 
144 1 1 32.2077 39.2811 2.66838 -0.064001 0.0274466 0.101341 
145 1 1 32.6019 37.6602 2.51301 0.133668 -0.0478086 -0.157656 
146 1 1 32.6072 36.9525 2.67067 0.0261445 -0.247743 -0.0162935 
147 1 1 31.9923 38.3925 2.64768 -0.0412905 -0.129915 -0.0460335 
148 1 1 38.9909 34.9778 8.47184 0.0853804 0.13096 0.0771652 
149 1 1 38.2811 34.2587 8.17177 0.202281 -0.00997138 0.180891 
150 1 1 39.7777 36.7493 9.13558 -0.163045 0.0859419 -0.187574 
151 1 1 38.8039 35.3896 9.28932 -0.191403 0.0119059 0.0246047 
152 1 1 39.1841 36.3095 9.69573 0.044693 -0.0289064 -0.0331106 
153 1 1 40.153 38.4574 8.48731 -0.0190222 -0.196477 -0.216463 
154 1 1 40.0096 39.5023 8.36887 0.0903221 0.138567 -0.0152541 
155 1 1 39.9184 37.811 9.17085 0.119152 -0.0159626 -0.0263723 
156 1 1 39.6558 40.4512 8.22619 0.109253 0.168229 0.225547 
157 1 1 39.041 41.4357 7.2241 -0.0265747 -0.012156 -0.0267761 
158 1 1 39.3491 41.0217 7.86855 0.168527 -0.0629207 0.0564683 
159 1 1 36.6649 42.3536 4.867 0.00593112 -0.153513 -0.01956 
160 1 1 35.7977 42.4075 4.42669 -0.130247 -0.115901 0.129355 
161 1 1 34.8277 42.3292 4.16511 0.10316 0.0473875 0.0145853 
162 1 1 34.1752 41.9486 3.6766 -0.0616037 -0.128568 0.0207793 
163 1 1 32.9344 41.0185 3.15341 -0.0452317 -0.0297296 0.0430398 
164 1 1 33.279 41.5889 3.46459 -0.190832 0.14653 -0.0898467 
165 1 1 31.7619 40.0307 3.0557 0.0138628 0.0836686 0.0466787 
166 1 1 32.2705 40.7436 3.15307 0.0704827 -0.0192746 -0.0475431 
167 1 1 38.2255 42.105 6.65382 -0.0895237 0.058974 -0.0221796 
168 1 1 38.5149 41.9123 7.34972 0.0699545 -0.00228571 -0.0389333 
169 1 1 37.0118 42.5439 5.51869 -0.0146711 -0.00215873 0.0291069 
170 1 1 37.5144 42.5154 6.38773 0.116164 0.0109761 0.048398 
171 1 1 37.5375 33.6628 7.66758 0.0221851 0.00502179 -0.11294 
172 1 1 36.7312 33.3997 7.24248 0.021746 -0.0843518 0.0402403 
173 1 1 34.9984 33.1835 5.84181 -0.0693921 0.0288651 0.0300198 
174 1 1 35.9359 33.1901 7.01216 -0.0261535 0.181866 0.0187378 
175 1 1 35.3237 33.1052 6.51677 -0.101356 -0.0122551 0.0466565 
176 1 1 34.1787 33.3341 5.8036 0.0337692 -0.0413209 0.0274256 
177 1 1 34.0655 33.6257 4.88647 -0.0743802 0.101443 0.0667077 
178 1 1 33.2572 34.0917 4.71486 0.0432499 -0.143032 0.0607854 
179 1 1 33.0701 34.6507 4.00326 -0.217725 -0.138221 0.0138389 
180 1 1 33.0324 35.3647 3.26017 0.0195172 0.049046 -0.0392189 
181 1 1 32.3932 35.7754 3.31586 0.055617 -0.0823122 -0.037846 
182 1 1 32.1548 36.3789 3.05517 -0.000717202 0.0724629 0.0482263 
183 1 1 31.3644 39.1225 2.94257 0.0215064 0.00122733 -0.0534134 
184 1 1 31.0206 39.9326 3.27037 -0.0731955 0.151418 0.0243541 
185 1 1 31.8246 37.4103 2.92696 0.113712 -0.0942057 -0.0953294 
186 1 1 31.2668 38.2382 3.0375 0.105197 0.11288 -0.0282228 
187 1 1 38.2757 34.6539 9.00708 0.0388615 0.221026 0.148873 
188 1 1 37.5193 33.9875 8.69315 -0.17486 -0.0605473 0.174363 
189 1 1 39.5068 37.3179 9.76148 0.0351304 0.0627346 0.00876117 
190 1 1 38.901 36.9761 10.2552 0.141341 -0.125626 0.0547656 
191 1 1 38.1611 35.0517 9.60986 0.0799541 -0.109295 -0.0365527 
192 1 1 38.4438 35.6241 9.91446 -0.149396 0.0184392 -0.0291205 
193 1 1 38.6112 36.3078 10.2641 -0.0109118 -0.14691 0.029467 
194 1 1 39.8592 38.926 9.24881 0.147896 0.051587 -0.042795 
195 1 1 39.6508 40.0216 9.15308 -0.0433564 -0.0588983 -0.0624136 
196 1 1 39.5675 38.3613 9.89915 -0.012672 0.0452431 0.0535257 
197 1 1 39.1403 40.8903 8.84323 -0.0656999 -0.075549 -0.155427 
198 1 1 38.7685 41.5749 8.20731 -0.149221 -0.0588005 0.130948 
199 1 1 36.1806 42.6516 5.34934 -0.0036579 0.177688 0.00249101 
200 1 1 35.4996 42.7998 5.35759 -0.115558 -0.129054 0.0551775 
201 1 1 34.906 42.6802 4.77098 0.0999321 0.0333468 0.109122 
202 1 1 34.1498 42.52 4.51023 -0.201627 -0.115673 -0.157484 
203 1 1 33.2333 42.1664 4.16772 -0.110357 0.0378737 0.143127 
204 1 1 32.3962 41.5992 3.66464 -0.0385047 -0.0122879 -0.00324186 
205 1 1 31.4537 40.8699 3.5235 0.141043 -0.227856 -0.0365359 
206 1 1 37.7807 42.3531 7.30836 0.222839 -0.00115284 -0.0676975 
207 1 1 38.0975 42.0842 8.18416 -0.047691 0.144098 -0.0752775 
208 1 1 36.6654 42.7566 6.30089 0.0171558 0.150872 0.0142461 
209 1 1 36.9682 42.7122 7.19792 -0.126648 -0.0822808 0.0464296 
210 1 1 36.7838 33.5384 8.20622 -0.0096059 -0.0514625 0.062318 
211 1 1 35.9964 33.3673 7.89762 -0.0118755 -0.09571 -0.0119398 
212 1 1 34.5623 33.1715 6.56093 0.0409761 0.230635 0.0585844 
213 1 1 35.1033 33.1955 7.46604 0.0947604 0.172479 0.10831 
214 1 1 33.7065 33.3813 6.51576 -0.148967 -0.06444 0.0566521 
215 1 1 33.3886 33.659 5.49391 0.0501604 0.0436951 0.0287573 
216 1 1 30.453 40.3074 3.57538 -0.120971 0.0199147 0.15188 
217 1 1 30.3368 39.4436 3.38812 -0.146983 0.00131238 -0.0833183 
218 1 1 32.5715 34.0354 5.48373 -0.0603989 -0.0701273 0.0148157 
219 1 1 32.377 34.4934 4.77802 0.151242 0.0143876 0.0383718 
220 1 1 32.1396 35.1615 3.97019 0.0627981 -0.193763 0.125744 
221 1 1 31.6908 35.9557 3.62386 0.0925617 -0.0655629 -0.00775687 
222 1 1 31.2377 36.7297 3.43202 -0.00149967 -0.00899374 0.133447 
223 1 1 30.628 38.6416 3.27732 -0.126145 0.0550789 0.176058 
224 1 1 30.747 37.6887 3.41317 0.0149617 0.113988 -0.104327 
225 1 1 36.6266 33.8782 9.11872 -0.0196534 -0.0163953 -0.155066 
226 1 1 37.4693 34.509 9.65188 -0.0724989 0.0554756 0.0280515 
227 1 1 39.0188 37.9274 10.3857 0.0868075 -0.0739285 -0.0201619 
228 1 1 38.5102 37.4081 10.7787 -0.177684 0.0733273 0.0486214 
229 1 1 38.2315 36.7221 10.8013 -0.0133049 0.00428175 -0.170321 
230 1 1 37.6569 35.2907 10.3013 -0.108132 0.115111 -0.0901153 
231 1 1 38.0541 36.0384 10.5831 -0.0765863 -0.0524944 -0.0741147 
232 1 1 39.3743 39.3659 9.93142 0.0509069 -0.14857 0.081801 
233 1 1 39.0082 40.1623 9.83434 0.111657 0.0985027 0.0368692 
234 1 1 38.8874 38.886 10.5169 -0.00748023 -0.169153 0.11876 
235 1 1 38.4628 40.8976 9.71184 0.114823 0.0955229 0.120955 
236 1 1 38.3619 41.5835 9.00705 0.282317 -0.0313318 0.0448234 
237 1 1 35.853 42.8452 6.09216 0.0576147 0.0935666 -0.0194873 
238 1 1 34.8735 43.0167 5.80818 0.0774015 -0.0794607 0.0594902 
239 1 1 34.0069 42.9226 5.24868 0.00293495 0.125271 -0.0176877 
240 1 1 33.218 42.6746 4.80494 -0.152859 -0.0204225 0.0684672 
241 1 1 32.314 42.3344 4.35216 0.0421912 -0.194883 -0.00909689 
242 1 1 31.42 41.8593 4.12324 0.0344569 0.168215 -0.0753769 
243 1 1 30.5523 41.1589 3.94651 -0.188179 -0.135603 0.0479305 
244 1 1 37.363 42.4608 8.03611 -0.0821779 -0.0415505 -0.0594034 
245 1 1 37.5487 42.0522 8.89828 0.042929 0.0791432 0.06573 
246 1 1 36.0467 42.9645 7.04933 -0.0105781 0.0880335 -0.163553 
247 1 1 36.4344 42.8361 8.01291 0.00260124 -0.0582478 0.0167158 
248 1 1 35.8912 33.5878 8.65177 -0.190866 -0.0458639 -0.141139 
249 1 1 35.3688 33.4229 8.27196 -0.0372068 0.102276 0.0500391 
250 1 1 34.088 33.3391 7.42151 0.242439 -0.0902196 -0.0932333 
251 1 1 34.5732 33.5039 8.19632 0.154415 -0.00796969 -0.0706199 
252 1 1 33.1572 33.5301 7.1572 -0.067338 0.0251132 0.206454 
253 1 1 32.8189 33.662 6.28134 0.0812213 0.0709958 -0.0365827 
254 1 1 29.6339 40.6942 4.05276 0.0771954 0.10653 0.0339262 
255 1 1 29.653 39.8117 3.75471 -0.0746905 -0.10937 0.0588292 
256 1 1 29.7312 38.8525 3.66387 -0.0781081 0.0108596 0.0210326 
257 1 1 32.0404 34.0392 6.10977 0.0800015 -0.0311442 0.00978105 
258 1 1 31.7837 34.4721 5.37969 -0.041101 -0.172816 -0.145042 
259 1 1 31.6244 34.8196 4.80997 -0.0912408 -0.0709713 -0.0523825 
260 1 1 31.1691 35.4274 4.32433 -0.0342929 0.058669 0.0858148 
261 1 1 30.733 36.1171 4.06832 -0.0739065 0.0660062 0.0421002 
262 1 1 30.3812 36.9297 3.82073 0.164084 0.0206978 -0.0737282 
263 1 1 29.9618 37.902 3.77899 -0.0675761 -0.197849 0.0982664 
264 1 1 35.8251 33.9109 9.33077 0.0865893 -0.121285 -0.0286756 
265 1 1 36.3439 34.272 9.90124 0.032037 -0.244645 -0.0866203 
266 1 1 36.8483 34.935 10.4355 -0.104546 0.0941413 0.231704 
267 1 1 38.2258 38.3182 11.0473 0.0215481 0.102616 0.186211 
268 1 1 37.8254 37.3776 11.222 -0.156538 -0.0967038 -0.0326825 
269 1 1 37.5819 36.4617 11.1163 -0.0325531 -0.138751 -0.0821757 
270 1 1 37.2421 35.7128 10.8596 -0.00943864 -0.0205244 0.00622343 
271 1 1 38.6026 39.7106 10.4863 -0.0379504 0.0603331 -0.106615 
272 1 1 38.3662 40.3859 10.293 0.0987063 0.12925 0.0945861 
273 1 1 38.2855 39.3057 10.8669 -0.26913 -0.0802118 0.197039 
274 1 1 37.7817 40.8209 10.396 -0.159989 -0.0862596 -0.0708942 
275 1 1 37.7109 41.5058 9.67255 0.0540676 -0.010196 0.00361194 
276 1 1 35.2378 43.1335 6.79345 0.0443984 0.0405425 -0.0552173 
277 1 1 34.4584 43.3189 6.70788 0.00294262 -0.0440963 0.137812 
278 1 1 33.7825 43.2634 6.20412 -0.145379 0.0492435 -0.0603366 
279 1 1 33.1475 43.2108 5.67378 -0.0735705 -0.0947244 -0.111626 
280 1 1 32.358 42.9539 5.1032 0.0201529 -0.112435 0.0180305 
281 1 1 31.5253 42.593 4.71695 -0.0515953 0.0728119 0.132729 
282 1 1 30.6475 42.0711 4.4328 -0.102731 -0.183038 -0.0193027 
283 1 1 29.701 41.5578 4.34261 -0.0770819 0.189103 -0.0731332 
284 1 1 36.7693 42.5059 8.73516 0.135974 -0.0451959 -0.0573819 
285 1 1 36.7953 42.0935 9.51323 -0.0192788 0.02022 0.0108688 
286 1 1 35.589 43.1108 7.76738 0.0449022 -0.175694 -0.102316 
287 1 1 35.9348 42.8943 8.68982 -0.134198 -0.0574348 0.0806793 
288 1 1 34.9546 33.8299 9.01786 0.112642 0.109688 0.116297 
289 1 1 33.6694 33.6517 8.07138 0.0790654 -0.157608 0.179402 
290 1 1 34.0569 33.7848 8.57951 -0.032849 -0.0411154 0.135826 
291 1 1 28.7861 41.0401 4.46029 -0.0479804 0.0240744 -0.026764 
292 1 1 32.6834 33.7931 7.90873 -0.0696069 -0.0561301 -0.0896281 
293 1 1 32.2687 33.8026 7.03176 -0.0301018 0.0628554 -0.0452643 
294 1 1 28.7811 40.1215 4.19965 0.0951407 0.0836631 -0.0615572 
295 1 1 28.9239 39.21 4.00225 0.0343634 -0.097058 0.156242 
296 1 1 29.1499 38.2402 4.081 -0.050129 -0.0506591 0.0915693 
297 1 1 31.356 34.1697 6.85882 0.139703 -0.0690782 0.0360652 
298 1 1 31.3966 34.3551 6.07693 0.132266 0.107399 0.151812 
299 1 1 30.888 34.9506 5.33749 0.0497172 -0.0931779 -0.0736791 
300 1 1 30.2871 35.5874 4.77604 -0.071109 -0.163223 0.0571653 
301 1 1 29.7778 36.4061 4.41041 -0.156775 -0.101999 -0.120177 
302 1 1 29.5545 37.25 4.22205 -0.00562216 0.230174 -0.0508019 
303 1 1 36.3403 35.4356 10.9288 0.0626704 -0.0142567 -0.0244403 
304 1 1 35.4064 34.253 9.78319 -0.0237055 0.00102291 0.128608 
305 1 1 35.8373 34.7518 10.4257 -0.267573 0.0779038 0.0584821 
306 1 1 37.715 39.0518 11.2582 -0.138683 0.030553 0.0368052 
307 1 1 37.3376 38.0992 11.4803 -0.125917 -0.0858338 0.0588177 
308 1 1 37.1183 37.1355 11.495 -0.0333401 0.0231961 -0.0473694 
309 1 1 36.6695 36.2234 11.3423 0.0872345 -0.0703632 -0.0388101 
310 1 1 37.7921 40.021 10.9757 -0.159279 0.159927 -0.0355665 
311 1 1 37.1692 40.7284 10.8831 0.0422434 0.192504 -0.0670577 
312 1 1 36.9788 41.4615 10.2989 -0.00889344 0.0731573 0.150888 
313 1 1 34.6879 43.3278 7.58034 -0.314467 -0.00347137 0.0291899 
314 1 1 33.8525 43.489 7.10478 -0.0678325 0.0857656 -0.0422425 
315 1 1 33.0157 43.5974 6.65674 0.0293232 0.137028 0.000316856 
316 1 1 32.2788 43.4629 6.02116 0.0928115 -0.0415655 -0.148346 
317 1 1 31.4772 43.2386 5.5606 -0.108699 -0.033758 0.0863395 
318 1 1 30.7096 42.8383 5.09604 0.00403531 0.0023817 0.0170804 
319 1 1 29.7567 42.3576 4.85653 0.0623123 0.149883 -0.0539918 
320 1 1 28.8309 41.914 4.81391 0.0372611 0.117331 -0.177361 
321 1 1 36.0679 42.5841 9.43229 -0.0106644 0.131858 0.0245673 
322 1 1 36.2163 42.1263 9.98538 -0.017108 0.0162973 -0.0478922 
323 1 1 35.0958 43.2011 8.51144 0.106596 -0.208082 0.0405561 
324 1 1 35.4731 42.9226 9.14784 -0.0476046 -0.0646602 -0.00502969 
325 1 1 34.5984 34.322 9.78641 0.203386 0.0901729 0.0724552 
326 1 1 34.0335 34.1505 9.35054 -0.0121643 0.0494866 -0.0148536 
327 1 1 33.161 34.043 8.80281 -0.0563935 -0.102226 0.0367436 
328 1 1 32.2727 34.1063 8.41548 0.130638 0.000877924 0.133722 
329 1 1 27.9218 41.2815 4.85507 0.0830042 -0.0259558 -0.0405934 
330 1 1 27.9634 40.3757 4.57502 0.154694 -0.00940675 -0.0438042 
331 1 1 31.744 34.1449 7.73218 -0.0241787 -0.118017 0.00795424 
332 1 1 28.0663 39.3209 4.39704 -0.025512 -0.109347 -0.0357292 
333 1 1 28.3415 38.3924 4.33205 -0.106139 -0.0721208 -0.0980044 
334 1 1 28.6078 37.5125 4.51778 0.0844822 -0.0505146 -0.055112 
335 1 1 30.8175 34.3775 7.39813 -0.0866199 -0.0667454 -0.085862 
336 1 1 30.4768 34.619 6.43288 0.0320901 0.0352543 -0.0312061 
337 1 1 29.8466 35.149 5.7221 0.0750687 -0.0130542 -0.132955 
338 1 1 29.4474 35.825 5.13178 0.0730146 0.00941947 -0.0875257 
339 1 1 28.9098 36.6863 4.83301 0.0981101 -0.0414693 0.191702 
340 1 1 37.1309 39.5061 11.4337 -0.0939238 0.0308541 -0.0690708 
341 1 1 35.7841 36.0351 11.4501 0.0366018 -0.0987379 0.00817236 
342 1 1 35.4066 35.406 11.1134 0.118095 -0.191515 0.0725947 
343 1 1 34.8232 34.8124 10.5316 -0.121649 0.126117 0.0299739 
344 1 1 36.9119 38.8306 11.6437 -0.13992 0.0225723 -0.135816 
345 1 1 36.5161 37.8728 11.7792 -0.111836 -0.0434781 0.258588 
346 1 1 36.2144 36.9491 11.7129 -0.204557 0.0762638 0.0561401 
347 1 1 35.335 36.6786 11.8761 -0.154923 0.107423 0.145964 
348 1 1 36.9175 40.2644 11.3125 0.0404596 0.18279 0.313518 
349 1 1 36.5125 41.0175 11.1405 0.173866 -0.0251716 0.221575 
350 1 1 36.0341 41.8017 10.7346 0.0443722 0.077101 0.199789 
351 1 1 34.3677 43.4736 8.45745 0.0921261 0.114711 -0.00355913 
352 1 1 33.7486 43.6713 8.0273 0.11082 -0.083339 0.10009 
353 1 1 33.0023 43.8069 7.57456 0.125355 -0.127515 -0.0602351 
354 1 1 32.1761 43.8421 7.00989 -0.0541291 -0.115927 0.118779 
355 1 1 31.4038 43.6853 6.42601 -0.153242 -0.0261618 0.0411127 
356 1 1 30.6151 43.5236 5.91353 0.098346 -0.0667571 -0.0329921 
357 1 1 29.8157 43.163 5.52451 -0.0607224 -0.00554193 0.0738658 
358 1 1 28.8885 42.684 5.24896 0.0784152 0.0790849 0.0336257 
359 1 1 27.8928 42.0711 5.17352 0.0682222 -0.0325351 0.182197 
360 1 1 35.3669 42.5618 10.0731 -0.0599664 0.135661 -0.0792076 
361 1 1 34.6786 43.236 9.45806 -0.0786822 0.107332 0.0434627 
362 1 1 33.9205 34.5341 10.079 -0.149222 0.0701393 -0.0279006 
363 1 1 33.1467 34.3935 9.72301 0.108389 0.014481 0.012518 
364 1 1 32.2039 34.4352 9.17101 0.117381 -0.0966301 0.0719986 
365 1 1 31.5688 34.3727 8.62177 -0.0601316 -0.132022 0.0646285 
366 1 1 27.0259 41.5212 5.28344 -0.0053116 0.136996 0.154192 
367 1 1 27.0838 40.6271 5.0003 0.110904 0.00527487 -0.029146 
368 1 1 27.2261 39.6593 4.8171 0.0698167 -0.00233495 0.0427079 
369 1 1 30.7418 34.5107 8.1673 0.0432682 -0.140497 0.314442 
370 1 1 27.4465 38.6993 4.78203 0.0776291 0.0239462 -0.099811 
371 1 1 27.6684 37.7992 4.91892 -0.0614097 0.0392693 -0.139621 
372 1 1 28.0107 36.9341 5.18202 -0.0958181 0.0608639 0.118922 
373 1 1 30.1236 34.5721 7.40316 0.0671002 -0.109248 0.0608659 
374 1 1 29.4601 34.9124 6.70774 -0.0538323 -0.0793477 0.160046 
375 1 1 29.0344 35.4391 6.01081 -0.154258 0.138291 0.0786603 
376 1 1 28.5406 36.1525 5.54186 -0.0858879 0.137641 -0.0122028 
377 1 1 36.3103 39.5876 11.835 -0.00891137 0.0591777 0.0102177 
378 1 1 34.9458 36.0236 11.6418 0.0828649 0.0175151 0.00446691 
379 1 1 34.6334 35.49 11.2482 0.0616045 0.178983 0.108487 
380 1 1 33.8215 35.1707 10.9188 0.0174227 -0.00419031 -0.149232 
381 1 1 36.0829 38.6075 12.0507 -0.0608914 -0.00894168 0.0771543 
382 1 1 35.7696 37.5888 12.0602 0.0644353 -0.183847 -0.0700017 
383 1 1 34.8312 37.3539 12.2705 0.0361253 -0.0691302 -0.0411476 
384 1 1 34.6471 36.678 12.0049 0.126312 -0.0166352 -0.140245 
385 1 1 36.0463 40.5736 11.6758 -0.18389 -0.0982085 0.0357537 
386 1 1 35.5319 41.4564 11.4142 -0.00109571 -0.168 -0.0736125 
387 1 1 35.0729 42.2637 10.951 0.0468008 -0.132697 -0.119294 
388 1 1 33.7886 43.6424 8.98755 -0.0782351 -0.0772664 -0.0211949 
389 1 1 33.0011 43.8601 8.52102 -0.0113452 0.00489777 -0.0192879 
390 1 1 32.1242 44.0586 7.89563 -0.0468908 0.0398985 0.0940606 
391 1 1 31.2545 44.0774 7.36132 -0.202007 0.0138481 -0.0364605 
392 1 1 30.4809 43.965 6.8058 0.0970221 -0.141044 0.123722 
393 1 1 29.7272 43.8157 6.3515 0.0215104 -0.0702315 0.0796576 
394 1 1 28.8955 43.4749 5.89458 0.00497236 -0.00617916 -0.0328721 
395 1 1 27.9338 42.9213 5.60005 0.0508523 -0.0886351 -0.126416 
396 1 1 27.0112 42.385 5.56671 -0.0574118 0.0299983 -0.0354301 
397 1 1 34.3427 42.9523 10.4863 0.0661375 -0.0368392 -0.0429564 
398 1 1 33.7759 43.4905 9.94659 0.133289 -0.0711916 0.0185014 
399 1 1 33.0876 35.0032 10.5659 -0.035044 -0.011317 -0.0297497 
400 1 1 32.2857 34.7891 10.1055 -0.0364927 -0.140082 0.278844 
401 1 1 31.4267 34.7398 9.61257 -0.0371751 -0.0779501 -0.219509 
402 1 1 26.1877 41.8409 5.74126 -0.092333 -0.0469254 -0.0527703 
403 1 1 30.6576 34.7404 8.95343 0.0999575 -0.109794 -0.155928 
404 1 1 26.2024 40.8538 5.44051 -0.0248557 -0.0225054 -0.0656262 
405 1 1 26.3647 39.9542 5.26793 -0.0960679 0.0372834 -0.16309 
406 1 1 26.5603 39.0415 5.25465 -0.0267572 -0.110796 -0.0265946 
407 1 1 29.8987 34.7119 8.34981 -0.0626173 0.00694007 -0.0371556 
408 1 1 26.8156 38.0536 5.36182 -0.0147202 -0.0379481 0.0348494 
409 1 1 27.1663 37.1347 5.60446 -0.0250776 0.118909 -0.136812 
410 1 1 27.6382 36.4432 5.90593 -0.074889 0.140844 0.145856 
411 1 1 29.2765 34.8774 7.67368 -0.0967862 0.0290932 -0.0678907 
412 1 1 28.6321 35.2376 6.97979 -0.164705 -0.0171762 0.0771385 
413 1 1 28.0909 35.7099 6.46615 0.0157711 0.0277412 0.0251654 
414 1 1 35.5172 39.1525 12.2965 0.248145 -0.0533789 0.0374968 
415 1 1 35.4324 39.9845 12.2018 0.0164775 -0.20627 0.00604998 
416 1 1 33.9512 35.9864 11.6544 -0.085537 -0.0166917 -0.0128605 
417 1 1 33.0663 35.6725 11.3744 0.00291773 0.190927 -0.00325238 
418 1 1 35.1903 38.3117 12.3904 -0.169244 0.21566 0.0422749 
419 1 1 34.3626 37.8338 12.5568 0.0460882 0.0284818 -0.065046 
420 1 1 33.802 36.9959 12.4322 -0.0231774 0.0586503 0.0190949 
421 1 1 35.1257 40.8249 12.0622 0.165723 0.0975006 0.0519803 
422 1 1 34.6789 41.7586 11.7864 -0.0105567 -0.0720005 0.0729685 
423 1 1 34.249 42.4248 11.3038 -0.00549976 0.0850211 0.103186 
424 1 1 32.9494 43.858 9.43118 -0.0241511 -0.057216 -0.0733402 
425 1 1 32.1866 44.1255 8.85344 0.0243546 0.0477813 0.0162664 
426 1 1 31.2368 44.3077 8.2832 -0.0950794 -0.103561 -0.117628 
427 1 1 30.4459 44.3807 7.77211 0.0302172 -0.077864 0.013536 
428 1 1 29.6201 44.2842 7.21177 0.0548019 0.157752 -0.269832 
429 1 1 26.1638 42.6902 5.95204 0.116685 0.0184467 -0.0152577 
430 1 1 28.8253 44.1107 6.67506 -0.12979 0.053238 -0.0217038 
431 1 1 28.0009 43.7365 6.2468 -0.0499466 0.126675 -0.174361 
432 1 1 27.015 43.2307 5.9351 0.0757332 -0.0830983 -0.116243 
433 1 1 33.6404 43.1696 10.8741 0.146383 0.0136377 0.083457 
434 1 1 32.8616 43.7262 10.3722 -0.137448 -0.0601705 0.0322697 
435 1 1 32.2135 35.3103 10.9179 -0.073627 0.104717 -0.0697971 
436 1 1 31.3996 35.0525 10.4748 -0.08863 -0.0657002 -0.122715 
437 1 1 30.6116 35.0119 9.85231 0.10105 0.0575255 -0.102788 
438 1 1 25.308 42.1281 6.07168 0.0454743 -0.010352 0.0202436 
439 1 1 25.3075 41.1918 5.84566 0.0468274 0.112254 0.0683258 
440 1 1 29.8377 34.9476 9.26821 -0.043764 0.0329877 -0.0125547 
441 1 1 25.446 40.2565 5.67946 -0.0871331 -0.0185943 0.000537912 
442 1 1 25.654 39.3688 5.61213 0.103998 0.133129 0.115756 
443 1 1 25.9338 38.4942 5.66735 0.0252333 -0.0175676 0.102537 
444 1 1 29.0538 35.0412 8.68156 0.183809 0.170435 -0.0051694 
445 1 1 26.2364 37.557 5.92733 0.150167 -0.0942625 -0.187087 
446 1 1 26.6978 36.7344 6.34937 0.0991304 -0.221397 0.0437434 
447 1 1 27.2587 36.008 6.89476 0.142488 -0.0642043 -0.217335 
448 1 1 28.4638 35.1852 7.96968 -0.116039 -0.0231843 -0.0778241 
449 1 1 27.7299 35.5494 7.44771 0.162664 0.126343 0.179623 
450 1 1 34.8984 39.2396 12.5681 0.122978 -0.0824221 0.0157201 
451 1 1 34.5408 40.1792 12.5684 -0.157243 0.187939 0.0309159 
452 1 1 32.9761 36.3508 12.1352 -0.0214643 -0.0103601 -0.0473369 
453 1 1 32.1637 35.8883 11.687 -0.0413625 -0.0053272 -0.00182889 
454 1 1 34.2668 38.594 12.729 0.0699632 0.0943284 0.0532009 
455 1 1 33.6189 37.8696 12.8235 -0.128428 -0.058304 0.198575 
456 1 1 32.8472 37.1707 12.7247 -0.0460433 0.120328 0.124508 
457 1 1 34.2198 41.1311 12.4333 0.04348 0.00328693 -0.204837 
458 1 1 33.8448 41.9049 12.1531 0.155161 -0.0770729 0.172221 
459 1 1 33.411 42.6786 11.7502 -0.124013 0.0958076 0.0306776 
460 1 1 32.1555 44.0941 9.79039 -0.0539278 0.0435871 -0.184313 
461 1 1 31.3017 44.3797 9.23813 0.0298635 -0.0267408 -0.0164155 
462 1 1 30.4061 44.6105 8.69666 0.022194 -0.0344069 -0.0491965 
463 1 1 29.585 44.6509 8.16615 0.0697024 -0.0689217 -0.0882651 
464 1 1 28.6824 44.6293 7.62054 0.018783 -0.0148388 -0.00921155 
465 1 1 25.2031 42.9266 6.33468 -0.264491 -0.0233148 -0.102847 
466 1 1 26.1086 43.4862 6.38573 -0.0705515 -0.0961995 0.0859894 
467 1 1 27.9889 44.4125 7.01035 0.0443202 -0.0726197 0.0950436 
468 1 1 27.1041 44.0307 6.54991 0.235627 -0.0550852 0.0333403 
469 1 1 32.7256 43.4414 11.2948 -0.115119 -0.130157 0.0932103 
470 1 1 32.0005 44.0125 10.7669 0.0542397 -0.179954 -0.0700588 
471 1 1 31.2991 35.5824 11.3107 -0.0196421 0.0264939 0.0203396 
472 1 1 30.5379 35.3919 10.8156 0.014813 -0.248856 -0.104343 
473 1 1 29.7693 35.212 10.2479 -0.215309 -0.114701 0.123036 
474 1 1 24.3018 42.4405 6.3725 -0.0167086 -0.130238 0.114171 
475 1 1 24.4127 41.5972 6.14574 -0.0102328 -0.0676691 0.0949709 