ITEM: TIMESTEP
0
ITEM: NUMBER OF ATOMS
57074
ITEM: BOX BOUNDS pp pp pp
0 62
0 62
0 62
ITEM: ATOMS id mol type x y z vx vy vz 
1 1 1 19.3414 7.45959 20.4676 0.191979 0.143663 -0.0378716 
2 1 1 19.5368 7.90813 21.1803 0.101785 -0.23276 -0.0256963 
3 1 1 18.6645 7.46254 21.0532 0.0806516 -0.00742473 0.239804 
4 1 1 18.8418 7.98698 21.7779 -0.0309224 -0.0910295 -0.103643 
5 1 1 18.4979 7.08038 20.2166 -0.125474 0.064212 0.197053 
6 1 1 17.8919 7.59895 21.5776 -0.0248583 -0.065328 -0.0596542 
7 1 1 17.9755 8.22103 22.3276 -0.106668 -0.0729031 -0.122547 
8 1 1 20.1062 7.87821 20.4012 0.00321193 -0.0443924 -0.0307635 
9 1 1 20.3621 8.48065 21.1306 0.00856716 0.00694987 0.0555007 
10 1 1 19.7149 8.49724 21.812 -0.0577656 -0.0256843 0.0168671 
11 1 1 18.9754 8.60809 22.3738 0.0211088 0.0278568 0.0688782 
12 1 1 18.3443 8.9566 22.8661 -0.0177749 0.0344533 -0.0825061 
13 1 1 19.7435 7.42491 19.6108 -0.04342 -0.0973306 -0.18078 
14 1 1 19.0672 7.13917 19.7466 0.142243 0.0506664 0.0506639 
15 1 1 18.4992 6.90448 19.3226 0.0330154 0.0577574 -0.0167055 
16 1 1 17.7646 7.15189 20.7646 -0.0807453 -0.0881654 0.00984948 
17 1 1 17.6652 6.85752 19.8349 0.0471904 0.0249315 0.0347945 
18 1 1 17.5846 8.82533 22.8886 0.0408324 -0.0944528 0.166418 
19 1 1 16.991 8.40771 22.5417 0.072038 0.0726816 0.0456319 
20 1 1 17.0477 7.85728 21.965 -0.0408571 -0.0954558 -0.134532 
21 1 1 16.963 7.37519 21.233 -0.0826829 -0.101723 0.114912 
22 1 1 20.1323 7.5951 18.9965 -0.0393331 0.0931733 -0.0658586 
23 1 1 20.5769 8.0404 19.7675 -0.10032 -0.0651887 0.0122285 
24 1 1 20.8921 8.59663 20.4299 0.13341 -0.0875239 0.0275667 
25 1 1 21.0492 9.16108 20.9907 0.114196 -0.0936887 0.0704469 
26 1 1 20.5028 9.20839 21.7723 -0.0179694 -0.124492 -0.100046 
27 1 1 19.8249 9.28996 22.4201 0.0570182 -0.081729 0.146954 
28 1 1 17.7272 9.49455 23.2853 -0.176849 -0.0632125 -0.148472 
29 1 1 19.1595 9.50886 22.9256 -0.00939146 -0.0652525 0.0555349 
30 1 1 18.4733 9.86659 23.3313 -0.0959405 -0.0392783 -0.085168 
31 1 1 19.2901 7.1391 18.7909 0.116259 0.200137 0.135811 
32 1 1 18.3727 6.85899 18.5877 -0.0501655 -0.158163 0.0810575 
33 1 1 17.6333 6.75656 18.9666 -0.0322925 0.0170774 0.0124074 
34 1 1 16.8184 6.99761 20.3083 -0.0140886 0.12137 -0.133645 
35 1 1 16.8528 6.79602 19.3332 -0.062137 0.0466862 0.0339505 
36 1 1 16.9578 9.13596 23.0831 -0.0639077 -0.0735476 0.0349959 
37 1 1 16.2076 8.86279 22.7573 -0.0453528 0.142258 -0.0227395 
38 1 1 17.0034 9.91499 23.4765 -0.110659 -0.177532 -0.115685 
39 1 1 16.1368 8.23137 22.1791 0.104503 0.0785214 0.114751 
40 1 1 16.088 7.76628 21.5856 -0.201157 0.0140335 -0.0714265 
41 1 1 15.9928 7.32184 20.7252 0.000160515 -0.10115 0.00931958 
42 1 1 20.0064 7.5495 18.2616 -0.0079503 -0.0101083 0.0605858 
43 1 1 20.7465 8.10669 18.3637 -0.0511353 -0.11274 -0.0151541 
44 1 1 21.0076 8.34309 19.0656 -0.02204 0.0914052 -0.0136691 
45 1 1 21.1693 8.64421 19.7335 0.0578568 0.0209908 -0.0997346 
46 1 1 21.4909 9.23849 20.0946 0.0481132 -0.108323 0.142178 
47 1 1 21.6513 9.88246 20.583 -0.055992 0.104863 0.0137329 
48 1 1 21.1707 9.91861 21.4963 0.0586137 0.105204 -0.114834 
49 1 1 20.5219 10.0339 22.3004 -0.0213612 0.105238 -0.0994282 
50 1 1 19.8571 10.2083 22.879 -0.0983867 0.116118 -0.0289109 
51 1 1 17.7868 10.3081 23.605 -0.014293 -0.00970883 0.0113398 
52 1 1 19.1471 10.4504 23.3191 0.0130299 -0.0337294 -0.050374 
53 1 1 18.4448 10.5616 23.5692 -0.0609912 0.153284 -0.0128752 
54 1 1 19.4377 7.31359 17.8384 0.0213442 -0.0221458 0.109578 
55 1 1 20.0401 7.8451 17.2386 0.170062 -0.0191549 -0.169595 
56 1 1 18.7614 7.02847 17.974 -0.0191294 0.0548399 -0.0988579 
57 1 1 17.8696 6.83874 18.038 0.037552 -0.0650183 -0.0369299 
58 1 1 18.769 7.28318 17.0862 0.0130265 -0.0734767 0.0495569 
59 1 1 16.9402 6.78759 18.3488 -0.0250895 0.0987125 -0.102638 
60 1 1 15.9892 7.02234 19.7437 -0.0645128 0.323665 -0.127029 
61 1 1 16.1412 6.89667 18.7008 0.0598654 0.027952 -0.0689065 
62 1 1 15.5913 8.68765 22.378 -0.0351134 -0.0981281 -0.0290512 
63 1 1 16.2271 9.60066 23.2099 -0.0288751 -0.0689769 -0.130382 
64 1 1 15.4658 9.37149 22.8116 0.110131 0.125973 -0.194034 
65 1 1 17.1493 10.784 23.7374 0.040386 -0.149434 0.00410862 
66 1 1 16.3026 10.4157 23.5406 0.107217 -0.128459 0.0140789 
67 1 1 15.3325 8.32078 21.8663 -0.0184947 0.0821094 0.102354 
68 1 1 15.221 7.81585 21.0709 0.320591 -0.227316 -0.0652386 
69 1 1 15.2224 7.4123 20.1304 0.0202076 0.26334 -0.0839648 
70 1 1 20.62 8.12168 17.7547 0.0312382 0.102982 0.1181 
71 1 1 21.2109 8.64462 18.1426 -0.112835 0.0604328 0.0294577 
72 1 1 21.6501 9.20038 19.029 0.030811 -0.0238752 0.0144416 
73 1 1 21.946 9.93749 19.6284 -0.0324649 -0.0328508 -0.0101745 
74 1 1 22.0171 10.5859 20.2162 0.0929104 0.0246727 0.00454042 
75 1 1 21.6691 10.6606 21.1149 0.105902 0.135974 -0.0429894 
76 1 1 21.1119 10.7737 21.9847 0.118982 0.124533 -0.0344766 
77 1 1 20.4194 10.9238 22.6965 -0.0488498 -0.00703285 0.0179109 
78 1 1 19.7601 11.1435 23.1763 -0.219098 0.0325407 0.0596608 
79 1 1 17.9843 11.1348 23.758 0.0417199 0.164084 -0.0246921 
80 1 1 18.9211 11.4189 23.5729 0.0558015 -0.0751431 -0.20023 
81 1 1 17.3022 11.6785 23.8356 0.112132 0.0209319 0.11342 
82 1 1 20.5268 8.49582 16.7473 0.137719 0.0809084 -0.127899 
83 1 1 19.3628 7.66971 16.7552 0.0133736 -0.0399023 0.089486 
84 1 1 19.9104 8.13463 16.5094 -0.0306413 -0.243895 -0.135469 
85 1 1 18.1797 7.09974 17.1889 -0.00376531 -0.0110364 -0.127459 
86 1 1 17.214 6.96422 17.3858 -0.00286663 0.0835659 -0.0991182 
87 1 1 18.442 7.49121 16.4469 -0.082541 -0.0339702 0.00571908 
88 1 1 16.2566 7.0038 17.689 0.000768043 -0.130139 -0.074988 
89 1 1 15.2661 7.2089 19.0859 -0.00474007 -0.181256 -0.104267 
90 1 1 15.4601 7.19636 17.9911 0.0816233 -0.0942744 0.117976 
91 1 1 14.7445 9.0279 22.1228 -0.147353 -0.00613249 -0.0256918 
92 1 1 15.4792 10.1105 23.1738 -0.176525 0.0962407 0.116976 
93 1 1 14.7179 9.8684 22.647 -0.00756774 -0.117633 0.0582661 
94 1 1 16.4043 11.3016 23.7253 -0.192158 0.0507477 0.0167937 
95 1 1 15.5421 10.9418 23.4277 -0.0647406 -0.19865 0.0718353 
96 1 1 14.5282 8.4601 21.3284 0.20224 -0.01488 0.0587391 
97 1 1 14.5123 7.96539 20.4559 0.0177492 0.00833841 -0.303055 
98 1 1 14.5232 7.66026 19.366 -0.0262964 0.170456 -0.00536249 
99 1 1 21.1093 8.83155 17.2915 -0.127571 -0.152871 -0.0776094 
100 1 1 21.6937 9.4631 17.8736 -0.0133505 0.0175843 0.0170474 
101 1 1 22.0653 10.1046 18.5417 -0.0371011 0.12022 0.176749 
102 1 1 22.2495 10.8006 19.1983 -0.139255 0.112602 -0.0269584 
103 1 1 21.9693 11.2375 20.689 0.0293238 0.0594351 -0.172536 
104 1 1 22.1996 11.3612 20.0036 0.129108 0.042967 -0.105769 
105 1 1 21.5876 11.6418 21.4922 -0.12263 -0.097503 0.0798622 
106 1 1 20.8781 11.665 22.3804 -0.0467821 0.00231207 -0.0202695 
107 1 1 20.1993 11.8462 22.945 0.0794846 0.128467 0.114962 
108 1 1 19.6141 11.9633 23.2898 -0.143547 -0.0241982 -0.0123554 
109 1 1 16.5522 12.2371 23.8147 0.0233188 0.122007 0.105466 
110 1 1 18.2026 12.0569 23.7539 -0.0686844 -0.00688107 -0.0825454 
111 1 1 19.0689 12.4256 23.4829 0.0641769 -0.123905 0.0311758 
112 1 1 17.4306 12.6398 23.8272 0.0221729 0.0346667 0.0816532 
113 1 1 20.0439 8.65178 15.9771 -0.111306 -0.160309 -0.104146 
114 1 1 20.8276 9.11351 16.3879 0.0855722 -0.00996555 -0.0719395 
115 1 1 19.1136 8.15635 15.8329 -0.0386591 0.0692305 0.0507722 
116 1 1 19.4378 8.90184 15.2917 0.0192517 -0.148035 0.0387082 
117 1 1 17.5651 7.3485 16.4672 -0.109549 -0.0684744 -0.164655 
118 1 1 16.5567 7.29861 16.6951 -0.0823678 -0.030405 -0.0351841 
119 1 1 17.9609 7.90542 15.6923 -0.216585 0.0249035 0.0176432 
120 1 1 15.6045 7.41606 17.0495 -0.251174 -0.0729392 -0.0920601 
121 1 1 14.6508 7.5676 18.3551 -0.107201 0.129533 0.0525115 
122 1 1 14.9214 7.64384 17.3386 0.0577669 0.0221 0.0303025 
123 1 1 13.946 9.23091 21.49 -0.141988 0.0139608 0.0783752 
124 1 1 14.1447 9.69772 22.075 -0.216012 -0.00508867 -0.0417893 
125 1 1 14.7507 10.6128 22.9521 0.0667448 -0.0865289 -0.167498 
126 1 1 14.0586 10.3284 22.3179 -0.0936053 0.0173542 -0.100402 
127 1 1 15.7092 11.8784 23.6253 0.0905027 0.0534585 0.054447 
128 1 1 14.9015 11.5992 23.2746 -0.00530739 0.0018054 0.149807 
129 1 1 15.8251 12.754 23.7467 -0.0219513 -0.0215464 -0.140667 
130 1 1 13.9885 8.05459 18.6496 -0.0717802 -0.0225267 0.267647 
131 1 1 13.8816 8.70091 20.7486 -0.133967 0.0592058 -0.0719698 
132 1 1 13.765 8.3425 19.5601 0.0852007 0.0841941 -0.0873659 
133 1 1 21.4535 9.65591 16.8858 0.0695251 0.0445178 0.0801817 
134 1 1 21.9465 10.2404 17.5648 -0.0386975 0.117752 -0.190486 
135 1 1 22.3296 11.6884 19.3207 0.0896109 -0.0361915 0.0745613 
136 1 1 22.2257 10.849 18.1667 0.0467622 -0.0654461 0.104336 
137 1 1 22.3432 11.5496 18.5755 -0.022009 -0.0436091 -0.0315742 
138 1 1 22.0169 12.0116 20.618 -0.0930732 0.0688281 -0.0983846 
139 1 1 22.2448 12.1756 19.7797 0.0512384 -0.00294571 -0.0569933 
140 1 1 21.6709 12.6448 21.1922 -0.0777624 0.053842 0.00684346 
141 1 1 21.1255 12.4841 22.0327 0.0974027 0.0497127 0.154274 
142 1 1 20.5942 12.3559 22.5944 -0.035792 0.00899896 -0.0412545 
143 1 1 19.8699 12.7659 23.0342 0.0306451 -0.0655197 0.0045833 
144 1 1 16.6923 13.1641 23.8519 -0.0274813 0.00368228 -0.105612 
145 1 1 18.363 12.9054 23.649 -0.0950849 -0.0257214 -0.00924855 
146 1 1 19.0251 13.1036 23.3945 0.130572 0.0412693 -0.125031 
147 1 1 17.5711 13.5423 23.7713 -0.188339 -0.0321757 -0.0524643 
148 1 1 20.2668 9.33586 15.5655 0.0449876 -0.00749533 -0.0339372 
149 1 1 21.0294 9.91758 15.983 0.0347375 0.11713 -0.0957877 
150 1 1 18.3875 8.58404 15.1037 0.0520639 0.0338429 -0.050325 
151 1 1 19.7514 9.67877 14.9671 0.086529 -0.0269543 -0.131758 
152 1 1 18.7784 9.38468 14.6665 -0.104363 0.109843 0.149001 
153 1 1 16.9433 7.76758 15.8354 -0.0442398 -0.00676198 -0.0913415 
154 1 1 15.9513 7.78598 16.1264 0.00703501 -0.0396607 -0.0331536 
155 1 1 17.4015 8.34829 15.1679 -0.0343373 -0.0571121 0.0664875 
156 1 1 15.0143 7.98684 16.5162 0.0303375 -0.139562 -0.0287267 
157 1 1 14.1761 8.05416 17.7125 0.044719 -0.0118562 0.137185 
158 1 1 14.4585 8.12657 16.9655 -0.0757108 0.0306529 -0.0191347 
159 1 1 13.4808 9.40137 20.9525 0.138762 -0.126876 -0.0217502 
160 1 1 13.4942 10.099 21.5507 0.0963414 0.198051 0.201736 
161 1 1 13.5594 10.9331 22.0743 -0.232069 0.153797 0.194457 
162 1 1 14.0785 11.3157 22.6974 0.0452309 0.0990706 -0.0230898 
163 1 1 15.0257 12.48 23.4919 -0.0254252 -0.086581 -0.0309778 
164 1 1 14.4138 12.183 23.1565 0.102561 -0.0101391 -0.160552 
165 1 1 15.8868 13.6547 23.822 0.190378 0.13189 0.125596 
166 1 1 15.249 13.1869 23.6627 0.0688876 -0.09871 -0.187686 
167 1 1 13.4744 8.59707 18.7073 0.0572209 -0.0914906 -0.050743 
168 1 1 13.643 8.51504 17.9586 0.0781026 -0.0530136 -0.0201898 
169 1 1 13.2705 9.20454 20.1952 -0.0785938 -0.0121397 0.123784 
170 1 1 13.1235 9.11863 19.2625 0.0978547 -0.0744199 0.296469 
171 1 1 21.6412 10.5588 16.5554 0.00779168 0.0033786 0.112542 
172 1 1 22.0265 11.1539 17.1602 -0.189068 0.0324418 -0.0323704 
173 1 1 22.3204 12.3 18.992 0.272174 0.00695699 -0.0330313 
174 1 1 22.2167 11.7905 17.6729 -0.0628302 -0.0507665 -0.0124154 
175 1 1 22.2957 12.2654 18.2812 -0.0718722 0.127097 0.00199065 
176 1 1 22.1722 12.9635 19.3902 -0.0914457 0.132459 0.0123844 
177 1 1 22.0029 12.85 20.3076 -0.0389132 -0.187536 -0.0124427 
178 1 1 21.5921 13.51 20.8182 -0.0167465 0.072325 -0.0101433 
179 1 1 21.1565 13.3188 21.6751 -0.0576857 -0.181426 0.012496 
180 1 1 20.575 13.068 22.4244 -0.00750971 -0.0596946 0.098126 
181 1 1 20.0546 13.6589 22.6583 0.137113 -0.00397137 -0.0336437 
182 1 1 19.4831 13.6881 23.0437 -0.254057 -0.0447845 -0.0293512 
183 1 1 16.7771 14.1384 23.8451 -0.0629166 0.0191304 0.120242 
184 1 1 15.8843 14.4313 23.8565 0.117715 0.0674975 0.0703182 
185 1 1 18.5302 13.8663 23.4722 0.0625926 -0.0681088 -0.0445842 
186 1 1 17.6302 14.3144 23.6997 -0.0195536 0.153298 -0.174028 
187 1 1 20.4935 10.22 15.2582 0.0455024 -0.069688 0.0190155 
188 1 1 21.1624 10.8506 15.7247 -0.0224833 -0.0336378 -0.216366 
189 1 1 17.786 9.02964 14.6612 -0.0280736 -0.00115916 -0.144323 
190 1 1 17.9339 9.74217 14.2927 0.215765 -0.107818 -0.112768 
191 1 1 19.9354 10.4306 14.7625 0.0492672 -0.00121014 -0.0911018 
192 1 1 19.3139 10.1983 14.5054 0.0135211 0.0268322 0.0776839 
193 1 1 18.5572 10.1582 14.2515 -0.0356951 -0.0202693 -0.102383 
194 1 1 16.3373 8.33947 15.3203 -0.0979007 -0.17336 0.0388065 
195 1 1 15.3832 8.44392 15.6429 -0.00838721 0.0713726 -0.0853834 
196 1 1 16.7226 8.95418 14.7368 0.0143668 -0.0536836 -0.147102 
197 1 1 14.4222 8.68358 16.1882 -0.0371109 0.105715 -0.173648 
198 1 1 13.8612 8.64958 17.047 -0.104101 0.147317 0.0898115 
199 1 1 13.077 9.93315 20.6797 -0.22548 0.0105807 0.103774 
200 1 1 12.9178 10.559 20.9083 0.134259 -0.061883 -0.0320679 
201 1 1 13.1076 11.021 21.5606 -0.031716 -0.0436677 0.00824802 
202 1 1 13.307 11.667 22.1412 -0.0150471 -0.0991695 0.00935221 
203 1 1 13.673 12.4009 22.7444 0.221394 -0.00761043 -0.0757952 
204 1 1 14.29 13.1619 23.3123 -0.0292306 0.0638848 -0.00813938 
205 1 1 14.9427 14.1036 23.6929 0.16894 0.0868124 0.0882886 
206 1 1 13.1143 9.14903 18.3249 0.00681256 0.0707987 -0.118914 
207 1 1 13.2736 9.23705 17.4066 0.113304 -0.0518719 -0.0144324 
208 1 1 12.8238 9.83597 19.7375 -0.0602841 0.010618 -0.0867438 
209 1 1 12.7452 9.81185 18.761 -0.0931232 0.0118658 0.145642 
210 1 1 21.6627 11.5081 16.3119 0.074379 0.0117465 0.00361063 
211 1 1 21.9186 12.1194 16.8314 0.00284794 0.137368 -0.0700415 
212 1 1 22.1887 12.9711 18.4821 -0.0245538 0.0156367 -0.190307 
213 1 1 22.053 12.8166 17.5025 0.0679076 -0.00564625 0.125829 
214 1 1 21.9629 13.6836 18.9116 -0.156546 0.0023773 0.109658 
215 1 1 21.8644 13.6335 19.8844 -0.0234199 -0.0672293 -0.0971389 
216 1 1 15.4008 15.0388 23.846 0.169442 0.0494645 -0.0789022 
217 1 1 16.3578 15.1008 23.8553 0.0357079 -0.0593821 0.16452 
218 1 1 21.4548 14.3256 20.3105 -0.0955593 -0.0589936 -0.0644844 
219 1 1 21.1144 14.2326 21.1626 0.14981 -0.087283 -0.150415 
220 1 1 20.5637 14.0492 22.0313 -0.0740486 -0.150416 0.0260032 
221 1 1 19.8108 14.3972 22.613 -0.315986 0.2343 0.138883 
222 1 1 19.0966 14.6107 23.0521 0.0509944 -0.0635532 0.0289569 
223 1 1 17.2657 14.9777 23.7269 -0.0325775 -0.018182 0.16749 
224 1 1 18.1736 14.9019 23.453 -0.166244 -0.127498 0.0700288 
225 1 1 21.1689 11.8566 15.6073 -0.14066 0.214324 0.0611813 
226 1 1 20.4703 11.2343 14.9614 0.175594 -0.0966303 0.112718 
227 1 1 17.0058 9.66379 14.3046 0.154763 0.014517 0.069607 
228 1 1 17.4004 10.252 14.066 -0.0944767 0.180874 0.106733 
229 1 1 18.0329 10.5585 14.0286 0.0173084 -0.0122754 -0.00039464 
230 1 1 19.5777 11.0589 14.4117 0.000502666 0.0967709 -0.0151135 
231 1 1 18.7998 10.7978 14.1458 0.0215103 0.159291 0.010141 
232 1 1 15.7695 9.04266 14.9414 0.0766243 -0.00950248 0.197608 
233 1 1 14.917 9.23256 15.2682 -0.0692724 -0.0792935 -0.105642 
234 1 1 16.072 9.67796 14.4688 -0.013965 0.172418 -0.0281611 
235 1 1 14.1646 9.61986 15.6273 -0.057023 -0.169619 0.0155465 
236 1 1 13.6563 9.33422 16.4905 0.0421546 0.0945613 -0.0755079 
237 1 1 12.652 10.5367 20.2207 -0.0835247 0.0595396 0.11137 
238 1 1 12.5056 11.3589 20.7561 -0.00328687 0.0803894 -0.0540691 
239 1 1 12.72 11.9435 21.5696 0.0338349 0.158116 0.111177 
240 1 1 13.0032 12.6345 22.255 0.0332582 -0.125378 -0.00771049 
241 1 1 13.39 13.3687 22.8433 -0.0403635 0.0820518 -0.0596019 
242 1 1 13.8946 14.1668 23.3346 -0.0631301 0.0397144 0.051379 
243 1 1 14.4444 15.0057 23.6703 -0.0335609 -0.0343341 0.0217207 
244 1 1 12.8447 9.86102 17.7867 0.0450816 0.138438 0.0135964 
245 1 1 13.115 9.98556 16.8532 -0.0376175 0.0254961 0.09049 
246 1 1 12.438 10.586 19.2593 -0.119579 -0.10487 -0.044669 
247 1 1 12.4582 10.5684 18.2938 0.308367 0.0141594 -0.0198747 
248 1 1 21.5195 12.4668 16.166 -0.131625 0.0420318 -0.130018 
249 1 1 21.7036 12.9082 16.6597 -0.0610578 -0.0546025 0.165027 
250 1 1 21.8841 13.6613 17.9354 0.0686164 0.13234 0.000196419 
251 1 1 21.6319 13.5652 16.9936 -0.142752 -0.066262 0.158913 
252 1 1 21.6211 14.4539 18.4274 0.160424 -0.0286026 -0.0409173 
253 1 1 21.6246 14.4118 19.3923 0.0959999 0.113335 0.149834 
254 1 1 14.9806 15.9045 23.8494 0.00257812 0.0425599 0.083091 
255 1 1 15.9272 15.8896 23.8719 -0.0665896 -0.10188 0.0640135 
256 1 1 16.8996 15.868 23.7343 -0.0308706 0.209381 0.149361 
257 1 1 21.2644 15.0768 19.8694 0.0543942 0.135862 0.0441393 
258 1 1 21.0104 15.0231 20.7134 0.238968 0.0236937 0.0172535 
259 1 1 20.7198 14.8527 21.3913 -0.010359 -0.019187 0.0540804 
260 1 1 20.1518 15.1319 21.9952 -0.100584 0.164718 0.0466366 
261 1 1 19.5173 15.3705 22.527 0.0223397 -0.00327439 -0.0101519 
262 1 1 18.709 15.5304 23.0621 0.00693513 -0.00405119 0.173988 
263 1 1 17.8384 15.7494 23.4535 -0.0635758 0.135498 0.1385 
264 1 1 21.0692 12.6248 15.6078 0.0130372 0.0926577 -0.057971 
265 1 1 20.5844 12.3224 15.0637 0.0378745 -0.0161371 0.0332252 
266 1 1 19.8328 11.9547 14.4997 0.122648 0.04696 0.0386925 
267 1 1 16.4283 10.5 14.0847 0.0120095 -0.0332579 -0.138387 
268 1 1 17.299 10.9977 13.8943 0.149774 0.0945197 -0.0859891 
269 1 1 18.1347 11.3189 13.9177 -0.13875 -0.0414694 0.0952881 
270 1 1 18.9947 11.6496 14.1157 -0.219391 -0.147841 -0.0371918 
271 1 1 15.263 9.84906 14.7101 0.0434902 -0.0784247 0.017827 
272 1 1 14.6238 9.91681 15.0686 -0.0794555 0.201608 0.00634424 
273 1 1 15.5849 10.3579 14.3711 -0.0472712 -0.00267966 0.0116055 
274 1 1 14.1315 10.4273 15.2486 -0.0282398 0.0690063 -0.102687 
275 1 1 13.5496 10.1766 15.9961 0.136285 0.137303 -0.166208 
276 1 1 12.1985 11.3225 19.7461 0.124945 0.0433367 -0.0282296 
277 1 1 12.0056 11.9828 20.1075 -0.0341774 -0.0245206 -0.174808 
278 1 1 12.1102 12.3782 20.8384 -0.0560101 -0.0123069 0.0918766 
279 1 1 12.3326 12.865 21.5779 0.0542741 0.0296387 -0.031138 
280 1 1 12.6293 13.5253 22.2648 0.0146512 -0.200468 0.088699 
281 1 1 13.0269 14.2285 22.8524 -0.133844 -0.0680427 -0.171279 
282 1 1 13.5205 15.032 23.3385 -0.155801 -0.160387 0.225674 
283 1 1 14.0426 15.9233 23.6756 -0.0616174 0.21597 0.108343 
284 1 1 12.6315 10.6457 17.3757 -0.0234958 0.0131586 -0.0708199 
285 1 1 12.9309 10.8375 16.5248 -0.0271937 -0.128701 0.0622773 
286 1 1 12.1224 11.2922 18.7887 -0.0215099 0.0793609 -0.0566326 
287 1 1 12.2322 11.2999 17.8309 -0.141937 0.1317 0.0827928 
288 1 1 21.2157 13.398 16.1217 -0.0570025 0.0314271 -0.106763 
289 1 1 21.5015 14.2833 17.4638 0.0150685 0.150978 -0.0679866 
290 1 1 21.2955 14.1201 16.7752 0.0404934 -0.180029 -0.0556906 
291 1 1 14.5881 16.8132 23.8564 0.0331945 0.0928408 -0.13582 
292 1 1 21.2596 15.1493 17.9542 0.0601726 -0.0093642 0.069114 
293 1 1 21.3398 15.1667 18.9107 -0.0278554 -0.0313997 -0.10024 
294 1 1 15.531 16.7797 23.8815 -0.0497676 -0.0504955 -0.0529604 
295 1 1 16.5079 16.7292 23.7502 0.123543 0.0379615 -0.00347955 
296 1 1 17.4244 16.6138 23.4827 -0.0185387 -0.197981 0.210107 
297 1 1 21.0109 15.8505 19.4702 -0.0785117 -0.119398 -0.084153 
298 1 1 20.9424 15.6113 20.2374 -0.143207 -0.0807675 -0.0785622 
299 1 1 20.4848 15.7884 21.1344 0.224467 -0.105473 0.0796898 
300 1 1 19.8459 16.0913 21.8899 0.111952 0.115819 0.256922 
301 1 1 19.1429 16.2601 22.5359 -0.00308794 0.175121 -0.0243159 
302 1 1 18.3211 16.4519 23.0711 -0.0428989 0.112105 -0.195418 
303 1 1 19.1639 12.5521 14.2466 0.033035 0.0409126 0.00192682 
304 1 1 20.6497 13.1667 15.3538 -0.0594445 0.0610358 -0.0244466 
305 1 1 19.9568 12.8819 14.7206 -0.0151515 0.0139585 0.05383 
306 1 1 15.6367 11.07 14.1898 0.21603 -0.0443268 -0.138073 
307 1 1 16.5044 11.4372 13.9197 -0.128743 -0.0317335 0.130343 
308 1 1 17.4042 11.8171 13.8376 0.153267 -0.0154163 -0.114618 
309 1 1 18.302 12.1921 13.9483 -0.170856 0.0729996 -0.155569 
310 1 1 14.8359 10.7285 14.6376 -0.0531595 0.144099 -0.0813006 
311 1 1 14.072 11.2161 15.0283 0.122623 -0.020416 -0.0598476 
312 1 1 13.4403 11.1163 15.6579 -0.0106185 0.0728294 -0.0048261 
313 1 1 11.8044 12.0915 19.2532 0.0569055 0.0940254 0.0411754 
314 1 1 11.6952 12.6699 20.0341 0.111293 -0.0982369 0.0264432 
315 1 1 11.7633 13.2206 20.8657 -0.118803 0.0592362 0.0738442 
316 1 1 11.943 13.787 21.5879 -0.0213944 -0.0923461 0.101407 
317 1 1 12.2412 14.446 22.2755 -0.0326956 0.144797 0.0257148 
318 1 1 12.6392 15.1494 22.8618 0.0524794 0.00981086 -0.128517 
319 1 1 13.1415 15.9901 23.3597 -0.14429 -0.0369744 -0.131536 
320 1 1 13.6545 16.8512 23.6852 0.0167758 0.2597 -0.123459 
321 1 1 12.4425 11.4577 16.9878 0.0219547 0.0160467 0.0211497 
322 1 1 12.7638 11.5564 16.3096 0.125443 -0.169197 -0.218167 
323 1 1 11.8595 12.0167 18.2442 -0.0124114 -0.165405 0.112875 
324 1 1 12.0735 11.9111 17.4746 0.0859924 0.155526 0.112314 
325 1 1 20.572 13.9426 15.6112 0.0277313 -0.0782972 0.0203163 
326 1 1 20.8279 14.3197 16.1294 0.0914644 0.0900323 0.0865058 
327 1 1 21.0118 14.972 16.9434 0.0865036 0.219959 -0.0555816 
328 1 1 20.9198 15.7548 17.6059 0.107867 0.0753583 -0.0287538 
329 1 1 14.1915 17.7157 23.8633 0.161663 0.0545177 0.0931211 
330 1 1 15.1406 17.697 23.8899 -0.0826349 -0.118815 0.122909 
331 1 1 20.9876 15.9617 18.4634 0.0947257 0.0037036 -0.0349541 
332 1 1 16.1214 17.6504 23.7597 0.0171006 -0.262022 -0.0594991 
333 1 1 17.0378 17.5356 23.4918 0.00774139 0.116796 0.0444425 
334 1 1 17.9341 17.3734 23.0808 -0.00807527 0.0773746 0.161293 
335 1 1 20.7577 16.5248 19.1774 0.221656 0.0475363 -0.0321892 
336 1 1 20.5868 16.5101 20.173 -0.119565 -0.132664 0.0544253 
337 1 1 20.0776 16.7872 21.1201 -0.0332072 -0.0709962 0.131294 
338 1 1 19.4825 16.9513 21.8992 -0.164372 -0.0183611 0.106111 
339 1 1 18.7551 17.1812 22.5443 -0.0118376 -0.0541182 0.0821036 
340 1 1 15.1832 11.574 14.2905 -0.0606098 0.0775592 0.0471734 
341 1 1 18.3805 13.0935 14.0651 -0.134556 0.0691615 0.0676227 
342 1 1 19.1472 13.4705 14.4149 -0.0150521 0.137813 -0.162589 
343 1 1 19.9297 13.8503 14.9922 -0.0505204 0.0753595 -0.0826957 
344 1 1 15.7879 11.9121 14.0377 0.112535 -0.0523366 0.0317949 
345 1 1 16.6285 12.3984 13.8621 -0.00620661 0.0664028 -0.166372 
346 1 1 17.5309 12.7452 13.8744 -0.0260922 -0.0778196 -0.0343006 
347 1 1 17.6724 13.6247 13.9562 -0.174325 -0.158593 0.142159 
348 1 1 14.4477 11.6517 14.6476 0.00397368 -0.0595638 -0.055015 
349 1 1 13.7158 11.9065 15.0874 -0.0597414 0.102337 -0.155845 
350 1 1 12.9579 12.168 15.7141 0.154611 0.142112 0.0060436 
351 1 1 11.5565 12.6644 18.5507 0.0955323 -0.0613021 0.101619 
352 1 1 11.3964 13.0592 19.2506 0.0838661 0.0613619 -0.0117415 
353 1 1 11.3226 13.5584 20.051 0.037017 -0.0543727 0.0623866 
354 1 1 11.3721 14.0957 20.8287 -0.00367267 -0.0396002 -0.108832 
355 1 1 11.5541 14.7068 21.5982 0.0844563 0.126727 -0.0339324 
356 1 1 11.8524 15.3674 22.2858 0.0755644 0.00467758 -0.0225472 
357 1 1 12.2524 16.0714 22.8717 -0.0497105 0.127841 0.0425438 
358 1 1 12.7519 16.9101 23.367 0.0646882 -0.126433 0.0599391 
359 1 1 13.2553 17.7917 23.6927 0.151714 -0.0614212 -0.148902 
360 1 1 12.2618 12.3747 16.5835 0.0122678 -0.0100612 -0.230513 
361 1 1 11.6812 12.7913 17.5564 -0.0405275 0.0140469 -0.074944 
362 1 1 20.2227 14.6371 15.5581 0.000376607 0.0700803 -0.206554 
363 1 1 20.439 15.2417 16.1379 -0.062348 0.0550992 0.0325604 
364 1 1 20.5592 15.9692 16.8812 0.045931 -0.0492268 0.00352949 
365 1 1 20.6464 16.4568 17.6944 0.0956245 -0.00804071 0.151215 
366 1 1 13.821 18.6668 23.8748 0.0630914 0.0496552 -0.0434614 
367 1 1 14.7402 18.615 23.8987 0.14799 -0.0184908 -0.00572328 
368 1 1 15.7256 18.5731 23.7676 0.0144291 0.0544317 -0.027584 
369 1 1 20.5812 16.9302 18.4856 0.0511268 -0.000927199 -0.0376688 
370 1 1 16.65 18.4581 23.5004 0.216588 -0.174295 -0.157031 
371 1 1 17.5467 18.2951 23.0897 0.0810415 -0.022775 -0.0999602 
372 1 1 18.3681 18.1032 22.5536 -0.07771 0.154985 0.0685915 
373 1 1 20.4528 17.2047 19.3949 -0.101333 -0.0139644 -0.102823 
374 1 1 20.1599 17.4421 20.2935 0.0510553 -0.0800123 0.0409991 
375 1 1 19.7068 17.6554 21.1378 -0.037846 -0.0647704 -0.0120227 
376 1 1 19.095 17.8733 21.908 0.00332655 0.224539 -0.0227343 
377 1 1 14.9854 12.4631 14.2279 -0.0237518 0.131319 0.0379986 
378 1 1 18.4298 14.0005 14.2105 0.0809502 -0.0497242 0.0861096 
379 1 1 19.0715 14.2256 14.5442 -0.0142371 -0.0251737 0.00436787 
380 1 1 19.4375 14.8995 14.9641 0.0858419 0.0865037 0.0454883 
381 1 1 15.8863 12.9272 13.933 -0.158125 0.186333 0.159704 
382 1 1 16.7703 13.2938 13.8519 0.0152706 0.0581301 -0.022426 
383 1 1 16.9836 14.212 13.8968 0.0160772 0.01343 0.202595 
384 1 1 17.7657 14.3368 14.0507 0.00727246 0.0561463 -1.90554e-05 
385 1 1 14.0613 12.5739 14.6563 -0.0594182 0.0129123 0.0396841 
386 1 1 13.2277 12.7972 15.1906 0.0402777 0.00781131 -0.036213 
387 1 1 12.4867 13.0559 15.8381 -0.0971492 -0.140854 -0.0381943 
388 1 1 11.2821 13.3617 18.3472 -0.087796 -0.0979328 -0.168586 
389 1 1 11.0428 13.8816 19.1669 -0.0782045 0.0623026 0.0963731 
390 1 1 10.9487 14.4277 20.0324 -0.00981796 -0.0130293 -0.0740539 
391 1 1 10.9841 15.0181 20.8386 -0.0607894 -0.00899367 -0.078999 
392 1 1 11.1672 15.6297 21.6072 -0.00404051 0.122547 0.22148 
393 1 1 11.465 16.2897 22.2956 0.153098 -0.0792738 0.135106 
394 1 1 11.8644 16.9938 22.8808 0.0598282 -0.0837439 0.0795899 
395 1 1 12.3546 17.8429 23.3725 0.170741 0.00944854 0.0576474 
396 1 1 12.8598 18.701 23.697 -0.282211 -0.18672 -0.145661 
397 1 1 11.8322 13.364 16.6168 -0.144157 0.0858881 -0.121304 
398 1 1 11.3122 13.7492 17.4546 -0.015041 -0.0219784 -0.156208 
399 1 1 19.7422 15.5322 15.4611 0.110513 0.0011724 0.00172323 
400 1 1 20.0512 16.1623 16.1467 0.137499 -0.0127403 0.0558415 
401 1 1 20.1983 16.8059 16.8715 -0.0674901 -0.0452587 -0.0383973 
402 1 1 13.3941 19.5496 23.8757 -0.097303 -0.0914371 -0.00554313 
403 1 1 20.2701 17.3439 17.695 -0.00968942 -0.0537233 -0.0350756 
404 1 1 14.3655 19.5567 23.9043 0.164612 0.0861178 -0.125238 
405 1 1 15.3213 19.4962 23.7791 -0.157989 0.0516088 0.120821 
406 1 1 16.2633 19.3779 23.508 -0.138982 0.189692 -0.00310946 
407 1 1 20.2409 17.7551 18.5868 0.00506098 0.0971744 0.0537519 
408 1 1 17.1593 19.2173 23.0981 0.0399008 -0.0356736 -0.114307 
409 1 1 17.9799 19.0254 22.5636 -0.0615775 -0.0337117 -0.019064 
410 1 1 18.7068 18.7939 21.9174 -0.0261794 0.129341 -0.0663191 
411 1 1 20.0738 18.0891 19.4551 0.0388552 0.110898 -0.0432977 
412 1 1 19.767 18.3639 20.3158 0.0306474 0.17105 -0.0935398 
413 1 1 19.3179 18.6097 21.1231 0.0187374 -0.100412 0.124798 
414 1 1 15.2938 13.4229 14.0173 -0.104817 0.200939 -0.132954 
415 1 1 14.4936 13.4434 14.2695 -0.0133729 -0.162633 0.0804335 
416 1 1 18.4563 14.9992 14.4057 0.0691515 0.128127 0.0230389 
417 1 1 18.9416 15.7778 14.8825 0.040339 0.0334753 0.0539254 
418 1 1 16.0151 13.9129 13.8761 0.0142668 -0.112083 0.0777395 
419 1 1 16.4284 14.7569 13.8745 -0.0126478 0.0655447 0.0529241 
420 1 1 17.323 15.1972 14.0392 -0.086516 0.0437574 0.0943586 
421 1 1 13.672 13.496 14.666 0.0377615 0.0750427 -0.016463 
422 1 1 12.8515 13.6876 15.2016 -0.157095 -0.140396 0.116525 
423 1 1 12.1247 13.9182 15.8458 0.122959 -0.0441247 -0.0175124 
424 1 1 10.9157 14.2488 18.3044 0.0628021 0.0765713 -0.0764126 
425 1 1 10.6643 14.7802 19.1558 0.0431005 -0.0410974 0.00215078 
426 1 1 10.5606 15.35 20.0411 0.0686967 -0.0369688 -0.0329081 
427 1 1 10.5979 15.94 20.8479 -0.0793619 -0.0144636 -0.00506702 
428 1 1 10.7796 16.5509 21.6169 -0.0882149 -0.00950053 -0.0231127 
429 1 1 12.474 19.6018 23.7037 0.18669 0.0541333 -0.0183998 
430 1 1 11.079 17.211 22.3047 -0.170977 0.00104904 -0.0724055 
431 1 1 11.4779 17.9152 22.8907 -0.00177195 -0.158329 -0.125876 
432 1 1 11.9667 18.755 23.3797 0.021658 0.0947209 0.0788062 
433 1 1 11.4707 14.2364 16.6164 0.0820386 -0.0911893 0.121257 
434 1 1 10.9287 14.6748 17.4494 -0.0631025 0.168741 0.0148224 
435 1 1 19.3657 16.4226 15.469 -0.067916 0.0169398 -0.137262 
436 1 1 19.6628 17.0839 16.1564 -0.0883497 -0.0365845 -0.0224275 
437 1 1 19.8442 17.6955 16.9256 0.0395223 -0.00903511 -0.036783 
438 1 1 12.9877 20.4774 23.8818 0.0295148 0.0277377 -0.015803 
439 1 1 13.9632 20.4643 23.9135 0.00655801 -0.0217431 0.020152 
440 1 1 19.9087 18.2172 17.7293 -0.149145 0.0624305 0.112035 
441 1 1 14.9447 20.4217 23.784 0.0867311 0.0598492 -0.141275 
442 1 1 15.8749 20.3001 23.516 0.154176 -0.100587 0.090099 
443 1 1 16.771 20.1389 23.1063 -0.187999 -0.0693458 0.0188314 
444 1 1 19.8635 18.6535 18.6135 0.00711506 0.0865219 0.0611549 
445 1 1 17.5922 19.9475 22.5715 0.110973 -0.0685704 0.00215372 
446 1 1 18.3195 19.7159 21.9256 -0.166778 -0.0485608 0.00539238 
447 1 1 18.9294 19.5284 21.1368 0.0321104 0.0191092 0.0513193 
448 1 1 19.6877 19.0008 19.4734 0.0461135 -0.173988 -0.0380382 
449 1 1 19.3774 19.2927 20.3215 0.0495851 0.0532373 0.040398 
450 1 1 15.0753 14.1478 14.0038 0.0961054 0.0236425 -0.0927162 
451 1 1 14.1257 14.2766 14.2843 0.0631156 0.1215 -0.0358558 
452 1 1 18.0154 15.9852 14.403 0.212 0.134273 0.312255 
453 1 1 18.581 16.6398 14.8916 -0.0358789 0.0320639 0.0325225 
454 1 1 15.6181 14.886 13.8827 0.0649258 0.111483 -0.0474243 
455 1 1 16.3333 15.526 13.8985 0.0121229 0.0615438 0.0159045 
456 1 1 17.0286 16.1843 14.0794 0.0956794 0.0643247 -0.119461 
457 1 1 13.2863 14.4176 14.6749 0.0801412 -0.105501 0.126934 
458 1 1 12.4647 14.6098 15.2104 0.0309076 0.053852 0.0343758 
459 1 1 11.7378 14.8404 15.8551 -0.0795532 0.0388339 0.00438429 
460 1 1 10.5334 15.1633 18.3026 -0.112258 -0.162009 0.0500097 
461 1 1 10.2772 15.6994 19.1596 0.0964843 0.0684263 0.0476002 
462 1 1 10.1713 16.2751 20.0453 -0.0330819 0.00697917 -0.0776526 
463 1 1 10.2109 16.862 20.8567 -0.0759687 0.0368403 0.165316 
464 1 1 10.3927 17.4727 21.626 0.114433 0.0314368 0.0103785 
465 1 1 12.0853 20.5354 23.7129 0.0194112 0.00930533 -0.0387713 
466 1 1 11.5825 19.6807 23.3921 0.146287 -0.104555 -0.240985 
467 1 1 10.6915 18.1316 22.314 -0.110855 0.101418 0.0963626 
468 1 1 11.0894 18.8376 22.8993 -0.0527723 -0.101519 0.0131441 
469 1 1 11.0612 15.1822 16.6497 -0.0577506 -0.205957 -0.00650209 
470 1 1 10.5382 15.6031 17.4613 0.112867 -0.045485 0.245172 
471 1 1 18.9774 17.344 15.478 0.0233933 0.0308042 0.0607276 
472 1 1 19.275 18.0052 16.1656 -0.0520262 -0.141222 -0.0749647 
473 1 1 19.4551 18.6182 16.9333 0.188967 0.00464055 -0.110426 
474 1 1 12.6137 21.4043 23.8921 -0.0532577 -0.16449 0.00517663 
475 1 1 13.5759 21.3723 23.9215 0.103322 -0.173713 0.0807903 