ITEM: TIMESTEP
100000000
ITEM: NUMBER OF ATOMS
94148
ITEM: BOX BOUNDS pp pp pp
0 62
0 62
0 62
ITEM: ATOMS id mol type x y z 
1 1 1 12.274 57.586 16.5998 
2 1 1 12.8084 57.0291 17.0106 
3 1 1 13.1035 57.4972 16.2065 
4 1 1 13.6555 56.9445 16.6191 
5 1 1 12.4141 57.8219 15.7587 
6 1 1 13.8382 57.3336 15.6599 
7 1 1 14.5153 56.7708 16.132 
8 1 1 11.8844 57.1799 17.3001 
9 1 1 12.3718 56.5887 17.8 
10 1 1 13.2743 56.4631 17.463 
11 1 1 14.1351 56.3976 17.0949 
12 1 1 14.854 56.1187 16.7979 
13 1 1 11.2485 57.6885 16.7022 
14 1 1 11.6358 57.8974 16.0497 
15 1 1 11.6381 58.0864 15.3155 
16 1 1 13.1713 57.7733 15.2577 
17 1 1 12.3664 58.1038 14.8995 
18 1 1 15.1998 56.1912 16.0963 
19 1 1 15.1691 56.5235 15.3345 
20 1 1 14.5559 57.1515 15.1075 
21 1 1 13.9243 57.5455 14.6957 
22 1 1 10.442 57.5594 16.7677 
23 1 1 11.0156 57.0701 17.4553 
24 1 1 11.4906 56.4393 17.9966 
25 1 1 11.901 55.9071 18.4035 
26 1 1 12.8681 55.7813 18.2413 
27 1 1 13.7857 55.7243 17.883 
28 1 1 15.5538 55.5224 16.4587 
29 1 1 14.5536 55.5536 17.5718 
30 1 1 15.2484 55.1734 17.1874 
31 1 1 10.698 57.9706 15.9047 
32 1 1 10.9369 58.2192 15.0222 
33 1 1 11.5516 58.3542 14.4467 
34 1 1 13.1257 57.9791 14.263 
35 1 1 12.2864 58.2508 13.9053 
36 1 1 15.6973 55.772 15.6526 
37 1 1 15.7456 55.9958 14.8432 
38 1 1 16.0363 54.9616 15.9517 
39 1 1 15.2102 56.6955 14.4365 
40 1 1 14.6231 57.1659 14.0401 
41 1 1 13.7919 57.5818 13.6583 
42 1 1 9.71752 57.6498 16.3403 
43 1 1 9.56122 57.1048 16.9772 
44 1 1 10.1668 56.8561 17.506 
45 1 1 10.7227 56.4996 17.9625 
46 1 1 10.862 55.8268 18.417 
47 1 1 11.2581 55.2454 18.8491 
48 1 1 12.3338 55.1693 18.8156 
49 1 1 13.2732 55.0616 18.5918 
50 1 1 14.1249 54.918 18.2143 
51 1 1 15.7997 54.6621 16.6965 
52 1 1 14.8681 54.6525 17.8062 
53 1 1 15.4881 54.4127 17.3556 
54 1 1 9.67162 57.9039 15.6199 
55 1 1 8.85524 57.4386 15.8472 
56 1 1 10.1883 58.1989 15.0331 
57 1 1 10.6612 58.3609 14.2595 
58 1 1 9.36241 58.0499 14.6518 
59 1 1 11.3653 58.3977 13.5187 
60 1 1 12.9799 57.9565 13.2412 
61 1 1 12.0862 58.1525 13.0036 
62 1 1 15.6329 56.1662 14.1 
63 1 1 16.1553 55.2307 15.0909 
64 1 1 16.0839 55.4449 14.1705 
65 1 1 16.2068 54.1116 16.1428 
66 1 1 16.4092 54.4021 15.2595 
67 1 1 15.2287 56.591 13.5721 
68 1 1 14.4654 57.0818 13.0448 
69 1 1 13.6913 57.4862 12.6702 
70 1 1 8.91457 57.0418 16.5769 
71 1 1 9.18832 56.5402 17.3628 
72 1 1 9.87653 55.9365 18.0043 
73 1 1 10.2461 55.1912 18.6193 
74 1 1 10.7687 54.5888 19.0263 
75 1 1 11.8354 54.5015 19.1912 
76 1 1 12.7945 54.2847 19.0531 
77 1 1 13.7845 54.2153 18.6768 
78 1 1 14.581 53.991 18.2432 
79 1 1 15.9055 53.8003 16.9392 
80 1 1 15.3167 53.6437 17.75 
81 1 1 16.2468 53.2496 16.3294 
82 1 1 8.17255 56.7277 16.0691 
83 1 1 8.72665 57.6305 14.9904 
84 1 1 8.23882 57.1711 15.3791 
85 1 1 9.76647 58.1663 14.0546 
86 1 1 10.389 58.2454 13.3629 
87 1 1 8.94624 57.7512 14.0433 
88 1 1 11.1083 58.1021 12.6566 
89 1 1 12.6922 57.7751 12.3028 
90 1 1 11.725 57.8031 12.0117 
91 1 1 15.7238 55.8576 13.2591 
92 1 1 16.3929 54.7089 14.3999 
93 1 1 16.2791 55.0198 13.4487 
94 1 1 16.5147 53.5797 15.5014 
95 1 1 16.6319 53.8512 14.5255 
96 1 1 15.0667 56.4333 12.6516 
97 1 1 14.329 56.8665 12.1796 
98 1 1 13.3498 57.2586 11.7872 
99 1 1 8.45091 56.279 16.8798 
100 1 1 8.8483 55.6325 17.6587 
101 1 1 9.2945 55.0123 18.2571 
102 1 1 9.7773 54.3419 18.8227 
103 1 1 11.3621 53.9123 19.3288 
104 1 1 10.589 53.7989 19.1934 
105 1 1 12.1872 53.4107 19.3214 
106 1 1 13.3769 53.4631 19.0087 
107 1 1 14.1046 53.3881 18.5893 
108 1 1 14.7225 53.1357 18.2217 
109 1 1 16.5466 52.6216 15.7346 
110 1 1 15.8488 52.9641 17.1671 
111 1 1 15.1945 52.6252 17.8747 
112 1 1 16.1312 52.3455 16.5613 
113 1 1 7.75265 56.5211 15.3417 
114 1 1 7.80147 56.0327 16.2284 
115 1 1 7.99693 57.0656 14.4137 
116 1 1 7.43693 56.2751 14.4686 
117 1 1 9.3807 57.7538 13.2532 
118 1 1 10.0454 57.8256 12.5156 
119 1 1 8.47768 57.2251 13.3504 
120 1 1 10.7791 57.6671 11.8881 
121 1 1 12.3867 57.3793 11.4599 
122 1 1 11.3803 57.3221 11.3309 
123 1 1 15.4914 55.6453 12.2213 
124 1 1 15.9667 55.2072 12.7024 
125 1 1 16.5473 54.1837 13.6945 
126 1 1 16.2946 54.5044 12.8071 
127 1 1 16.726 52.941 14.8951 
128 1 1 16.8269 53.1927 14.0222 
129 1 1 16.8042 52.1306 15.0468 
130 1 1 12.9621 56.8013 10.989 
131 1 1 14.8899 56.0856 11.8188 
132 1 1 13.8966 56.4777 11.1578 
133 1 1 8.02019 55.4379 17.0405 
134 1 1 8.3846 54.895 17.791 
135 1 1 9.84582 53.5047 19.029 
136 1 1 8.81636 54.3275 18.2638 
137 1 1 9.08585 53.5638 18.6847 
138 1 1 11.1879 53.0741 19.4006 
139 1 1 10.3695 52.9357 19.2195 
140 1 1 11.9633 52.4641 19.2479 
141 1 1 12.9888 52.6392 19.0891 
142 1 1 13.7563 52.7336 18.7759 
143 1 1 14.4295 52.299 18.2887 
144 1 1 16.5896 51.7269 15.855 
145 1 1 15.6878 52.1236 17.3496 
146 1 1 15.0572 51.8632 17.7756 
147 1 1 16.0963 51.4046 16.598 
148 1 1 7.27011 55.7941 15.3269 
149 1 1 7.37301 55.2662 16.263 
150 1 1 7.73157 56.5913 13.4706 
151 1 1 7.01883 55.5391 14.5667 
152 1 1 7.14157 55.8097 13.6073 
153 1 1 9.11886 57.2731 12.451 
154 1 1 9.78627 57.2745 11.7729 
155 1 1 8.30171 56.7321 12.6783 
156 1 1 10.5773 56.9849 11.1849 
157 1 1 12.0691 56.8524 10.7848 
158 1 1 11.2563 56.7389 10.7834 
159 1 1 15.2294 55.3202 11.5514 
160 1 1 15.7575 54.6101 11.9503 
161 1 1 16.2909 53.8613 12.3119 
162 1 1 16.7055 53.5207 13.007 
163 1 1 16.9805 52.3155 14.2025 
164 1 1 16.9227 52.6521 13.4303 
165 1 1 16.8428 51.1598 15.1752 
166 1 1 16.9549 51.5485 14.4568 
167 1 1 13.2926 56.1752 10.514 
168 1 1 12.5204 56.2807 10.3449 
169 1 1 14.5937 55.5521 10.9878 
170 1 1 13.8523 55.5876 10.4617 
171 1 1 7.63754 54.5263 17.0543 
172 1 1 8.0266 54.0012 17.6659 
173 1 1 9.5136 52.8199 19.0012 
174 1 1 8.40731 53.3265 18.1194 
175 1 1 8.85006 52.8171 18.5507 
176 1 1 10.0121 52.1321 19.0885 
177 1 1 10.9605 52.2287 19.2658 
178 1 1 11.5618 51.6007 19.121 
179 1 1 12.5299 51.7142 18.9398 
180 1 1 13.4698 51.9992 18.685 
181 1 1 13.9301 51.4748 18.2917 
182 1 1 14.5312 51.2092 17.9601 
183 1 1 16.4808 50.7302 16.0037 
184 1 1 16.8818 50.3534 15.1607 
185 1 1 15.4086 51.127 17.3639 
186 1 1 15.9195 50.5967 16.7187 
187 1 1 6.93825 54.9666 15.5397 
188 1 1 7.07032 54.2729 16.3401 
189 1 1 7.59626 56.1044 12.6833 
190 1 1 7.20358 55.3311 12.6178 
191 1 1 6.79401 54.7904 14.8301 
192 1 1 6.76597 54.9858 14.0575 
193 1 1 6.90326 55.01 13.2768 
194 1 1 8.91184 56.6766 11.7285 
195 1 1 9.69585 56.5699 11.1002 
196 1 1 8.15164 56.0918 11.8309 
197 1 1 10.5715 56.1577 10.434 
198 1 1 11.6221 56.1458 10.2699 
199 1 1 15.0762 54.7484 11.0757 
200 1 1 15.4479 54.0734 11.1781 
201 1 1 15.9685 53.5664 11.5974 
202 1 1 16.483 53.0432 12.0844 
203 1 1 16.821 52.3169 12.6116 
204 1 1 17.0582 51.6452 13.4382 
205 1 1 17.183 50.6478 14.2244 
206 1 1 12.9662 55.5828 10.0641 
207 1 1 12.0842 55.491 9.80614 
208 1 1 14.342 54.8459 10.4525 
209 1 1 13.4748 54.9315 10.0244 
210 1 1 7.44758 53.5624 16.9442 
211 1 1 7.82282 53.0156 17.482 
212 1 1 9.12259 52.1004 18.7104 
213 1 1 8.31785 52.2369 17.9999 
214 1 1 9.63055 51.4042 18.7076 
215 1 1 10.5464 51.4397 19.0074 
216 1 1 17.0527 49.7289 14.6905 
217 1 1 16.6088 49.6932 15.5874 
218 1 1 11.1929 50.768 18.8019 
219 1 1 12.0324 50.8477 18.7289 
220 1 1 13.0982 51.0607 18.5081 
221 1 1 13.9363 50.6424 18.0646 
222 1 1 14.6873 50.3423 17.604 
223 1 1 16.1013 49.9282 16.3674 
224 1 1 15.4278 49.9891 17.1117 
225 1 1 6.97559 53.2627 16.2498 
226 1 1 6.68034 53.9541 15.3594 
227 1 1 7.61171 55.4858 11.8007 
228 1 1 7.27745 54.7757 12.0611 
229 1 1 6.93724 54.5115 12.7009 
230 1 1 6.57158 54.0993 14.3282 
231 1 1 6.6412 54.3101 13.5 
232 1 1 8.84158 55.9711 11.0752 
233 1 1 9.5129 55.7946 10.4838 
234 1 1 8.13625 55.2984 11.1099 
235 1 1 10.0928 55.3026 9.98221 
236 1 1 11.0864 55.4442 9.87474 
237 1 1 14.904 54.1268 10.6096 
238 1 1 15.4321 53.2812 10.7364 
239 1 1 16.118 52.7241 11.2805 
240 1 1 16.6115 52.0109 11.7705 
241 1 1 16.9777 51.3123 12.4137 
242 1 1 17.2547 50.5811 13.1506 
243 1 1 17.326 49.6891 13.7726 
244 1 1 12.5825 54.8715 9.67632 
245 1 1 11.6118 54.7195 9.4656 
246 1 1 14.0943 54.078 9.96549 
247 1 1 13.2535 54.1251 9.53863 
248 1 1 7.41086 52.6661 16.84 
249 1 1 7.76205 52.1476 17.3019 
250 1 1 8.80596 51.4755 18.1301 
251 1 1 8.12255 51.4773 17.4899 
252 1 1 9.29392 50.6706 18.2037 
253 1 1 10.2189 50.6595 18.6284 
254 1 1 17.2066 48.8585 14.3663 
255 1 1 16.7835 48.903 15.1942 
256 1 1 16.1822 49.0339 16.0432 
257 1 1 10.7936 49.9847 18.4496 
258 1 1 11.6658 50.0852 18.468 
259 1 1 12.4514 50.2888 18.3937 
260 1 1 13.2434 49.97 18.1059 
261 1 1 13.9567 49.683 17.7214 
262 1 1 14.8191 49.3894 17.3101 
263 1 1 15.5748 49.1826 16.7553 
264 1 1 7.0534 52.4569 16.189 
265 1 1 6.72315 52.7187 15.5082 
266 1 1 6.53401 53.1777 14.6263 
267 1 1 7.64457 54.4675 11.3378 
268 1 1 7.12541 53.9193 12.097 
269 1 1 6.69293 53.6948 12.8434 
270 1 1 6.51344 53.4206 13.734 
271 1 1 8.80428 55.2269 10.5965 
272 1 1 9.41199 54.9785 10.1821 
273 1 1 8.32563 54.628 10.6792 
274 1 1 9.82138 54.4709 9.79802 
275 1 1 10.6267 54.6503 9.5714 
276 1 1 14.6312 53.3983 10.0343 
277 1 1 14.9643 52.6816 10.0438 
278 1 1 15.6742 52.2994 10.443 
279 1 1 16.2421 51.6922 10.9146 
280 1 1 16.7137 51.0078 11.4978 
281 1 1 17.1437 50.4247 12.1521 
282 1 1 17.4009 49.6617 12.7669 
283 1 1 17.4223 48.719 13.4571 
284 1 1 12.2688 54.1447 9.28664 
285 1 1 11.3652 53.8878 9.20633 
286 1 1 13.8956 53.3426 9.50252 
287 1 1 12.9076 53.4827 9.15202 
288 1 1 7.45962 51.7148 16.6413 
289 1 1 8.5125 50.7558 17.5792 
290 1 1 7.94511 50.8905 17.0075 
291 1 1 17.336 47.842 14.1595 
292 1 1 9.1089 49.9481 17.6577 
293 1 1 9.87778 49.8629 18.1442 
294 1 1 16.8971 47.9768 14.968 
295 1 1 16.3564 48.1822 15.7228 
296 1 1 15.7196 48.3464 16.369 
297 1 1 10.4169 49.2325 18.0514 
298 1 1 11.2476 49.3903 18.2923 
299 1 1 12.2674 49.3516 18.1673 
300 1 1 13.1808 49.0086 17.8492 
301 1 1 14.0259 48.7875 17.4548 
302 1 1 14.8886 48.4774 16.9581 
303 1 1 6.59838 52.4969 13.9785 
304 1 1 6.96853 51.8932 15.6755 
305 1 1 6.64321 52.1539 14.8617 
306 1 1 8.05815 53.8832 10.767 
307 1 1 7.48184 53.476 11.4666 
308 1 1 6.99622 53.1019 12.1936 
309 1 1 6.69377 52.7893 13.0195 
310 1 1 8.84816 54.1868 10.1933 
311 1 1 9.56646 53.6796 9.71137 
312 1 1 10.4309 53.594 9.44606 
313 1 1 14.308 52.5394 9.47843 
314 1 1 15.0736 51.9498 9.77218 
315 1 1 15.8376 51.3607 10.166 
316 1 1 16.4132 50.7093 10.6068 
317 1 1 16.9234 50.1005 11.2233 
318 1 1 17.2941 49.4291 11.8376 
319 1 1 17.464 48.6272 12.5382 
320 1 1 17.5391 47.8164 13.2081 
321 1 1 12.0215 53.2884 8.95623 
322 1 1 11.2463 53.0977 9.0689 
323 1 1 13.4049 52.7678 9.04278 
324 1 1 12.607 52.8138 8.89322 
325 1 1 7.24455 51.1595 15.8399 
326 1 1 7.65333 50.6727 16.3067 
327 1 1 8.32781 50.032 16.8892 
328 1 1 8.89987 49.3257 17.1679 
329 1 1 17.4986 46.9636 13.8169 
330 1 1 17.0649 46.951 14.6539 
331 1 1 9.6087 49.041 17.5597 
332 1 1 16.4835 47.1718 15.391 
333 1 1 15.8663 47.38 16.0586 
334 1 1 15.0589 47.5358 16.646 
335 1 1 10.3598 48.4532 17.6872 
336 1 1 11.2673 48.5012 17.9535 
337 1 1 12.3976 48.2895 17.8872 
338 1 1 13.2741 48.0726 17.5835 
339 1 1 14.2098 47.815 17.1617 
340 1 1 8.43453 53.32 10.3783 
341 1 1 6.68336 51.9042 13.2075 
342 1 1 6.70102 51.4739 14.0426 
343 1 1 6.90705 51.1105 14.9786 
344 1 1 7.89694 53.0492 10.8838 
345 1 1 7.42202 52.5182 11.5413 
346 1 1 6.94331 52.2074 12.3398 
347 1 1 6.96757 51.3305 12.4748 
348 1 1 9.05703 53.1496 9.91161 
349 1 1 9.74336 52.8488 9.49364 
350 1 1 10.6025 52.4819 9.08933 
351 1 1 13.7541 52.0641 8.99576 
352 1 1 14.4815 51.5946 9.14172 
353 1 1 15.2119 51.0755 9.40685 
354 1 1 15.9195 50.5569 9.79683 
355 1 1 16.5271 49.7845 10.2625 
356 1 1 17.0679 49.21 10.8625 
357 1 1 17.4232 48.5607 11.5442 
358 1 1 17.5989 47.6939 12.2855 
359 1 1 17.7437 46.85 12.8379 
360 1 1 11.6691 52.3258 8.76024 
361 1 1 12.7934 51.903 8.69452 
362 1 1 7.31083 50.3945 15.4627 
363 1 1 7.81701 49.823 15.9902 
364 1 1 8.40527 49.0861 16.4427 
365 1 1 9.03327 48.5675 16.9047 
366 1 1 17.6791 45.9746 13.4678 
367 1 1 17.2903 46.0879 14.2808 
368 1 1 16.6506 46.1831 15.1653 
369 1 1 9.80285 48.1101 17.2621 
370 1 1 15.9777 46.3852 15.8065 
371 1 1 15.2328 46.6287 16.3948 
372 1 1 14.2955 46.9014 16.8759 
373 1 1 10.6381 47.6787 17.5747 
374 1 1 11.5792 47.5869 17.7088 
375 1 1 12.5101 47.3843 17.5627 
376 1 1 13.4309 47.16 17.1896 
377 1 1 8.37835 52.3753 10.2433 
378 1 1 6.78418 51.0137 13.2693 
379 1 1 6.84993 50.6339 14.0397 
380 1 1 7.04568 50.0125 14.5138 
381 1 1 7.77969 51.9987 10.926 
382 1 1 7.30955 51.645 11.6855 
383 1 1 7.22591 50.7125 11.7927 
384 1 1 6.99944 50.5024 12.6017 
385 1 1 9.1318 52.2258 9.63182 
386 1 1 9.93332 51.9535 9.10924 
387 1 1 10.823 51.6103 8.6764 
388 1 1 13.669 51.3548 8.6724 
389 1 1 14.4789 50.7868 8.78737 
390 1 1 15.3672 50.2075 9.06881 
391 1 1 16.0432 49.636 9.42811 
392 1 1 16.7525 48.9469 9.96137 
393 1 1 17.2064 48.283 10.6378 
394 1 1 17.5254 47.5947 11.2304 
395 1 1 17.8445 46.8049 11.8852 
396 1 1 17.8728 45.9355 12.5575 
397 1 1 11.8779 51.2894 8.52115 
398 1 1 12.8541 50.9167 8.34387 
399 1 1 7.48298 49.5323 15.0903 
400 1 1 7.9517 48.8359 15.6679 
401 1 1 8.48871 48.247 16.101 
402 1 1 17.6867 45.0851 13.1812 
403 1 1 9.21224 47.7038 16.6317 
404 1 1 17.3808 45.1462 14.0833 
405 1 1 16.8492 45.2717 14.8723 
406 1 1 16.1194 45.4105 15.5032 
407 1 1 9.98215 47.2136 16.9948 
408 1 1 15.3943 45.6845 16.1497 
409 1 1 14.5247 45.9595 16.6679 
410 1 1 13.5962 46.16 16.9487 
411 1 1 10.8844 46.8311 17.2661 
412 1 1 11.7324 46.5961 17.3175 
413 1 1 12.6843 46.4355 17.2062 
414 1 1 8.0797 51.4685 10.3748 
415 1 1 8.64044 51.3898 9.73102 
416 1 1 6.97787 49.9505 13.3735 
417 1 1 7.22192 49.2175 14.1171 
418 1 1 7.63344 51.044 10.9686 
419 1 1 7.4559 50.1094 11.2856 
420 1 1 7.21806 49.7227 12.1501 
421 1 1 9.32009 51.2792 9.23978 
422 1 1 10.1636 51.0635 8.76491 
423 1 1 11.1288 50.7368 8.42084 
424 1 1 13.7239 50.3846 8.33723 
425 1 1 14.6488 49.8463 8.48125 
426 1 1 15.5359 49.2805 8.69756 
427 1 1 16.2762 48.7142 9.11952 
428 1 1 16.8705 48.1237 9.66763 
429 1 1 17.9891 45.0438 12.3018 
430 1 1 17.3376 47.422 10.2693 
431 1 1 17.7809 46.6848 10.9297 
432 1 1 18.0423 45.8608 11.6564 
433 1 1 12.0736 50.4203 8.14378 
434 1 1 12.9658 49.9435 7.98407 
435 1 1 7.59486 48.6012 14.7732 
436 1 1 8.03494 47.9054 15.3589 
437 1 1 8.67744 47.3247 15.9017 
438 1 1 17.9059 44.1744 12.8301 
439 1 1 17.4954 44.1912 13.6889 
440 1 1 9.37245 46.779 16.3094 
441 1 1 16.9445 44.3305 14.5095 
442 1 1 16.2387 44.4722 15.1873 
443 1 1 15.5051 44.6984 15.8359 
444 1 1 10.2362 46.3001 16.6986 
445 1 1 14.6829 44.9927 16.3967 
446 1 1 13.7643 45.2345 16.6957 
447 1 1 12.8048 45.4928 16.8339 
448 1 1 11.0057 45.9088 16.8398 
449 1 1 11.9081 45.7134 16.8956 
450 1 1 8.14183 50.6544 10.1627 
451 1 1 8.77058 50.5281 9.42712 
452 1 1 7.18868 48.9331 13.1391 
453 1 1 7.37262 48.27 13.8698 
454 1 1 7.76193 49.9368 10.6016 
455 1 1 7.50762 49.296 11.2614 
456 1 1 7.32643 48.7575 12.1286 
457 1 1 9.49104 50.3882 8.87435 
458 1 1 10.3418 50.1708 8.45056 
459 1 1 11.2492 49.8187 8.0444 
460 1 1 14.0341 49.4122 7.95693 
461 1 1 14.8461 48.9249 8.13166 
462 1 1 15.7086 48.3915 8.41988 
463 1 1 16.4988 47.7308 8.80113 
464 1 1 17.0818 47.2039 9.38464 
465 1 1 18.1514 44.1009 11.9586 
466 1 1 18.0958 44.897 11.3656 
467 1 1 17.5449 46.4858 10.0057 
468 1 1 17.9334 45.7609 10.6571 
469 1 1 12.2032 49.4498 7.71633 
470 1 1 13.2509 49.0849 7.62424 
471 1 1 7.6902 47.6215 14.5058 
472 1 1 8.17844 46.9511 15.0568 
473 1 1 8.76999 46.3867 15.6094 
474 1 1 18.0614 43.2632 12.5075 
475 1 1 17.6339 43.2624 13.3581 
476 1 1 17.0818 43.3541 14.2118 
477 1 1 9.50424 45.9365 16.0211 
478 1 1 16.4313 43.4992 14.9291 
479 1 1 15.6487 43.7107 15.5707 
480 1 1 14.8303 44.0791 16.0629 
481 1 1 10.3177 45.4696 16.2985 
482 1 1 13.9823 44.304 16.4288 
483 1 1 13.0104 44.5206 16.5173 
484 1 1 12.0953 44.7404 16.5115 
485 1 1 11.2039 45.0304 16.4786 
486 1 1 8.27637 49.8008 9.81745 
487 1 1 8.88413 49.6142 9.11107 
488 1 1 7.30023 48.1233 12.7849 
489 1 1 7.47052 47.3695 13.5199 
490 1 1 7.82401 49.0516 10.3548 
491 1 1 7.61589 48.4036 11.1382 
492 1 1 7.4373 47.7968 11.8271 
493 1 1 9.7152 49.4413 8.55201 
494 1 1 10.5425 49.2475 8.03565 
495 1 1 11.4043 48.827 7.70785 
496 1 1 18.3496 43.1625 11.631 
497 1 1 14.2003 48.5513 7.61468 
498 1 1 15.0214 48.0085 7.84 
499 1 1 15.8318 47.4169 8.11841 
500 1 1 16.5855 46.79 8.51931 
501 1 1 17.2607 46.2682 9.14901 
502 1 1 18.3114 43.9601 11.0481 
503 1 1 17.9726 44.822 10.3712 
504 1 1 17.6867 45.5889 9.71679 
505 1 1 12.4608 48.5352 7.40362 
506 1 1 13.4364 48.1606 7.37269 
507 1 1 18.2333 42.3038 12.2136 
508 1 1 7.7895 46.7074 14.2167 
509 1 1 8.35159 46.0467 14.8095 
510 1 1 8.9864 45.4195 15.291 
511 1 1 17.853 42.3358 13.0434 
512 1 1 17.2665 42.3764 13.8776 
513 1 1 16.6109 42.6022 14.6095 
514 1 1 9.67941 44.9463 15.6439 
515 1 1 15.8044 42.8386 15.2501 
516 1 1 14.9962 43.0669 15.74 
517 1 1 14.0363 43.4036 16.0624 
518 1 1 10.4659 44.568 15.9796 
519 1 1 13.0829 43.6046 16.1967 
520 1 1 12.1814 43.8464 16.2082 
521 1 1 11.2952 44.1005 16.1603 
522 1 1 8.39834 48.9272 9.53233 
523 1 1 9.1084 48.6758 8.84383 
524 1 1 7.42907 47.0828 12.4305 
525 1 1 7.60424 46.3701 13.2555 
526 1 1 7.93779 48.1587 10.1912 
527 1 1 7.68873 47.4954 10.8233 
528 1 1 7.53657 46.7791 11.4388 
529 1 1 9.84015 48.4927 8.2934 
530 1 1 10.6617 48.2687 7.76465 
531 1 1 11.6322 47.9757 7.42192 
532 1 1 18.504 42.2002 11.3295 
533 1 1 18.4483 43.1248 10.755 
534 1 1 14.3111 47.5918 7.32376 
535 1 1 15.229 47.0514 7.56826 
536 1 1 16.0383 46.4853 7.84901 
537 1 1 16.8737 45.9206 8.27276 
538 1 1 17.3855 45.3186 8.74806 
539 1 1 18.1907 43.9818 10.0079 
540 1 1 17.8245 44.6514 9.4226 
541 1 1 12.6407 47.6567 7.10861 
542 1 1 13.5179 47.1926 6.97914 
543 1 1 18.4413 41.3097 11.8941 
544 1 1 17.9668 41.3516 12.7032 
545 1 1 8.01395 45.7724 13.9251 
546 1 1 8.51466 45.1557 14.4572 
547 1 1 9.05371 44.4726 14.9488 
548 1 1 17.4347 41.4992 13.474 
549 1 1 16.7475 41.6545 14.2781 
550 1 1 15.9408 41.9403 14.9448 
551 1 1 9.78564 43.9834 15.3522 
552 1 1 15.1125 42.1099 15.4137 
553 1 1 14.2163 42.4471 15.8148 
554 1 1 13.244 42.6742 15.8669 
555 1 1 10.5802 43.5276 15.6281 
556 1 1 12.2998 42.9222 15.8821 
557 1 1 11.4387 43.1786 15.775 
558 1 1 8.53671 48.0405 9.36226 
559 1 1 9.23124 47.7428 8.59992 
560 1 1 7.52237 46.122 12.1526 
561 1 1 7.73201 45.4928 12.8849 
562 1 1 8.09034 47.2566 9.87819 
563 1 1 7.81494 46.5736 10.4863 
564 1 1 7.7231 45.9016 11.1215 
565 1 1 9.99605 47.6078 7.97769 
566 1 1 10.8162 47.3389 7.50735 
567 1 1 11.8012 47.0966 7.16172 
568 1 1 18.6651 41.3301 10.9796 
569 1 1 18.5956 42.2564 10.3581 
570 1 1 18.3842 43.1067 9.65982 
571 1 1 14.4432 46.6822 7.06972 
572 1 1 15.3291 46.1475 7.20018 
573 1 1 16.3379 45.58 7.53162 
574 1 1 16.9953 44.9261 7.86279 
575 1 1 17.55 44.3842 8.43577 
576 1 1 18.0561 43.7574 9.04763 
577 1 1 12.7645 46.6877 6.78792 
578 1 1 13.7025 46.2616 6.69605 
579 1 1 18.5679 40.4416 11.401 
580 1 1 18.1154 40.4541 12.3554 
581 1 1 17.5231 40.622 13.1485 
582 1 1 8.13387 44.8934 13.5237 
583 1 1 8.58978 44.1693 14.0985 
584 1 1 9.24049 43.5423 14.5997 
585 1 1 16.8553 40.7865 13.9025 
586 1 1 16.0514 41.0187 14.5045 
587 1 1 15.2164 41.1995 15.0566 
588 1 1 9.91926 43.098 15.0429 
589 1 1 14.3945 41.526 15.405 
590 1 1 13.4358 41.707 15.6053 
591 1 1 12.5035 41.9765 15.6065 
592 1 1 10.7212 42.6437 15.2525 
593 1 1 11.6172 42.285 15.4669 
594 1 1 8.64111 47.0849 9.05119 
595 1 1 9.34627 46.8787 8.33953 
596 1 1 7.744 45.1825 11.7443 
597 1 1 7.95791 44.6335 12.5281 
598 1 1 8.23096 46.3556 9.52954 
599 1 1 7.9909 45.6168 10.055 
600 1 1 7.90866 44.948 10.7606 
601 1 1 10.1175 46.6064 7.78482 
602 1 1 11.0418 46.4271 7.20616 
603 1 1 11.8784 46.1105 6.85396 
604 1 1 18.8454 40.3464 10.5489 
605 1 1 18.7473 39.5305 11.003 
606 1 1 18.969 39.4474 10.1864 
607 1 1 18.7448 41.2812 10.0661 
608 1 1 18.5059 42.1578 9.37843 
609 1 1 18.2215 42.875 8.74912 
610 1 1 14.5993 45.7273 6.7455 
611 1 1 15.5834 45.2371 6.91188 
612 1 1 16.448 44.6038 7.17402 
613 1 1 17.1351 43.9865 7.54667 
614 1 1 17.7299 43.4811 8.06231 
615 1 1 12.9307 45.7585 6.59146 
616 1 1 13.8213 45.2627 6.4732 
617 1 1 18.3369 39.6465 11.9193 
618 1 1 17.7846 39.72 12.7853 
619 1 1 17.0575 39.8774 13.5325 
620 1 1 8.2515 43.9708 13.2305 
621 1 1 8.7612 43.3247 13.7845 
622 1 1 9.36618 42.6281 14.2907 
623 1 1 16.2525 40.1065 14.1837 
624 1 1 15.3991 40.2966 14.7045 
625 1 1 14.5151 40.5133 15.1247 
626 1 1 9.98344 42.129 14.6471 
627 1 1 13.5401 40.76 15.2836 
628 1 1 12.5993 40.9778 15.2394 
629 1 1 11.768 41.3772 15.1573 
630 1 1 10.8986 41.7343 14.9284 
631 1 1 18.4193 38.6492 11.666 
632 1 1 18.9404 38.4824 10.7508 
633 1 1 8.81073 46.1426 8.69788 
634 1 1 9.49699 45.902 8.0527 
635 1 1 8.00333 44.2537 11.4636 
636 1 1 8.06803 43.6359 12.186 
637 1 1 8.36097 45.3952 9.18973 
638 1 1 8.14757 44.6837 9.9007 
639 1 1 8.08113 43.952 10.4586 
640 1 1 10.3315 45.7254 7.45321 
641 1 1 11.1891 45.4392 6.89142 
642 1 1 12.1115 45.1881 6.55099 
643 1 1 18.8891 40.2952 9.68424 
644 1 1 19.1688 38.7388 9.69119 
645 1 1 19.0516 39.4557 9.221 
646 1 1 18.698 41.1995 9.10281 
647 1 1 18.3691 41.9063 8.45044 
648 1 1 17.8964 42.5477 7.86574 
649 1 1 14.7757 44.7986 6.42132 
650 1 1 15.6709 44.2965 6.57378 
651 1 1 16.4292 43.7041 6.82505 
652 1 1 17.2466 43.0995 7.24732 
653 1 1 13.0455 44.7919 6.26514 
654 1 1 14.0093 44.4487 6.06 
655 1 1 17.9307 38.7679 12.487 
656 1 1 17.2415 39.0128 13.2169 
657 1 1 16.4696 39.1711 13.8627 
658 1 1 8.44145 42.9996 12.8992 
659 1 1 8.91774 42.3371 13.4607 
660 1 1 9.56032 41.7232 13.8438 
661 1 1 15.5721 39.3693 14.3413 
662 1 1 14.6997 39.6123 14.774 
663 1 1 13.7369 39.7969 14.9975 
664 1 1 10.2675 41.2213 14.2392 
665 1 1 12.7885 40.0698 15.0112 
666 1 1 11.9142 40.3725 14.8504 
667 1 1 11.0707 40.7865 14.6553 
668 1 1 18.0041 37.8331 12.2082 
669 1 1 18.5685 37.7111 11.3237 
670 1 1 19.1321 38.0524 10.1147 
671 1 1 19.3006 38.0265 9.35073 
672 1 1 18.9265 37.4252 10.5731 
673 1 1 8.97527 45.1544 8.40923 
674 1 1 9.71226 44.9789 7.66252 
675 1 1 8.16558 43.3213 11.1463 
676 1 1 8.22906 42.6924 11.9204 
677 1 1 8.53095 44.4288 8.88536 
678 1 1 8.26958 43.7192 9.56024 
679 1 1 8.18937 42.9876 10.2102 
680 1 1 10.4909 44.7704 7.1029 
681 1 1 11.2852 44.5351 6.62475 
682 1 1 12.1418 44.2744 6.22327 
683 1 1 18.875 40.2299 8.71244 
684 1 1 19.1932 38.601 8.81269 
685 1 1 18.9942 39.31 8.32518 
686 1 1 18.4881 40.8981 8.17353 
687 1 1 18.0068 41.582 7.54347 
688 1 1 17.3868 42.1981 7.0514 
689 1 1 14.8813 43.8898 6.11394 
690 1 1 15.7924 43.3364 6.24524 
691 1 1 16.5869 42.7907 6.60794 
692 1 1 13.1944 43.9381 5.89471 
693 1 1 14.1281 43.4428 5.81447 
694 1 1 17.3522 37.9972 12.9609 
695 1 1 16.6651 38.2424 13.557 
696 1 1 15.7923 38.4862 14.0276 
697 1 1 8.5882 42.0597 12.5349 
698 1 1 9.11681 41.3465 13.1195 
699 1 1 9.76005 40.6867 13.5723 
700 1 1 14.8293 38.6742 14.4922 
701 1 1 13.8674 38.8779 14.724 
702 1 1 12.9209 39.1764 14.7637 
703 1 1 10.5017 40.2429 14.0714 
704 1 1 12.0822 39.4182 14.5964 
705 1 1 11.239 39.7444 14.3482 
706 1 1 17.4421 37.0692 12.5815 
707 1 1 18.0654 36.9231 11.8435 
708 1 1 18.529 36.5597 11.0061 
709 1 1 19.3329 37.6536 8.47605 
710 1 1 19.2937 37.2733 9.62308 
711 1 1 19.0359 36.7087 10.191 
712 1 1 9.10396 44.2832 8.01942 
713 1 1 9.80357 44.0695 7.32989 
714 1 1 8.22626 42.3383 10.8914 
715 1 1 8.42008 41.7386 11.5748 
716 1 1 8.70875 43.5535 8.5795 
717 1 1 8.43411 42.7537 9.18567 
718 1 1 8.33398 42.0684 9.84542 
719 1 1 10.6072 43.8367 6.75197 
720 1 1 11.3663 43.622 6.25391 
721 1 1 12.266 43.3693 5.8717 
722 1 1 18.6098 39.9509 7.77542 
723 1 1 19.0695 38.4718 7.87065 
724 1 1 18.6835 39.0544 7.3645 
725 1 1 18.1831 40.6861 7.26813 
726 1 1 17.5442 41.2863 6.73257 
727 1 1 16.7663 41.8853 6.42156 
728 1 1 15.0352 42.9845 5.85152 
729 1 1 15.9351 42.3876 6.03966 
730 1 1 13.3488 42.9691 5.60132 
731 1 1 14.2219 42.4972 5.49101 
732 1 1 16.8016 37.1912 13.233 
733 1 1 15.9936 37.5633 13.7161 
734 1 1 15.1101 37.7525 14.1501 
735 1 1 8.77788 41.1128 12.27 
736 1 1 9.2352 40.3764 12.7772 
737 1 1 9.88285 39.8187 13.3368 
738 1 1 14.1698 37.8739 14.3393 
739 1 1 13.2116 38.1814 14.3986 
740 1 1 12.3214 38.4743 14.2881 
741 1 1 10.5609 39.2486 13.7247 
742 1 1 11.3966 38.7991 14.0684 
743 1 1 17.4781 36.0714 12.2949 
744 1 1 16.8144 36.2597 12.8728 
745 1 1 18.0618 35.8657 11.6761 
746 1 1 17.5587 35.0959 12.0509 
747 1 1 19.1537 37.7097 7.58851 
748 1 1 18.4522 35.6413 11.0018 
749 1 1 19.3084 36.919 7.75866 
750 1 1 18.8188 35.9681 10.3887 
751 1 1 19.3243 36.6356 8.73022 
752 1 1 19.2073 36.2792 9.58347 
753 1 1 9.21804 43.3504 7.70417 
754 1 1 9.95686 43.1442 6.99391 
755 1 1 8.39898 41.4862 10.5289 
756 1 1 8.58442 40.8552 11.3257 
757 1 1 8.8124 42.5997 8.26929 
758 1 1 8.60542 41.8145 8.84924 
759 1 1 8.49918 41.1811 9.48205 
760 1 1 10.7615 42.8377 6.42218 
761 1 1 11.5597 42.641 5.9175 
762 1 1 12.4653 42.4702 5.51664 
763 1 1 18.2139 39.7745 6.8173 
764 1 1 18.8248 38.2074 7.03099 
765 1 1 18.3456 38.8277 6.47964 
766 1 1 17.6626 40.429 6.32233 
767 1 1 16.9114 41.0113 6.01508 
768 1 1 15.9839 41.5451 5.74335 
769 1 1 15.0919 42.0769 5.49776 
770 1 1 13.4119 41.9868 5.27227 
771 1 1 14.3782 41.5685 5.13055 
772 1 1 16.104 36.5469 13.4155 
773 1 1 15.2834 36.8485 13.8174 
774 1 1 14.3428 37.0734 14.0166 
775 1 1 8.87127 40.1107 11.9012 
776 1 1 9.35107 39.4172 12.4886 
777 1 1 9.9568 38.8911 13.0394 
778 1 1 13.3959 37.2833 14.1153 
779 1 1 12.4418 37.5206 13.9443 
780 1 1 11.5962 37.879 13.7713 
781 1 1 10.7628 38.3308 13.4304 
782 1 1 13.6866 36.4354 13.8355 
783 1 1 16.8789 35.343 12.5358 
784 1 1 16.1288 35.5854 13.0781 
785 1 1 18.0836 34.8295 11.3653 
786 1 1 17.0046 34.4648 12.2451 
787 1 1 17.5441 34.2468 11.7824 
788 1 1 17.998 33.7929 11.3015 
789 1 1 19.0068 37.1988 6.70025 
790 1 1 19.3723 36.2995 7.00765 
791 1 1 18.6744 35.0425 10.5398 
792 1 1 19.4118 36.0908 7.93167 
793 1 1 19.0011 35.3854 9.752 
794 1 1 19.3137 35.7303 8.92066 
795 1 1 9.43831 42.4481 7.38657 
796 1 1 10.1162 42.1672 6.62364 
797 1 1 8.56566 40.5779 10.1953 
798 1 1 8.64732 39.9463 10.9124 
799 1 1 9.02484 41.6306 7.92637 
800 1 1 8.89112 40.8434 8.55653 
801 1 1 8.69357 40.2471 9.23898 
802 1 1 10.8491 41.9313 6.07192 
803 1 1 11.7344 41.7935 5.52008 
804 1 1 12.5783 41.4953 5.19856 
805 1 1 17.821 39.4607 6.01247 
806 1 1 18.4501 37.9012 6.10415 
807 1 1 17.8481 38.4921 5.66025 
808 1 1 17.0787 40.1035 5.63891 
809 1 1 16.245 40.6006 5.34219 
810 1 1 15.3449 41.1358 5.18871 
811 1 1 13.5638 41.1085 4.97982 
812 1 1 14.4862 40.7048 4.8997 
813 1 1 15.4665 35.9046 13.4684 
814 1 1 14.5865 36.1655 13.7409 
815 1 1 8.94331 39.1816 11.5908 
816 1 1 9.51635 38.5181 12.2159 
817 1 1 10.1732 37.9631 12.653 
818 1 1 12.6102 36.5108 13.6983 
819 1 1 11.7388 36.9569 13.4171 
820 1 1 10.903 37.4642 13.1528 
821 1 1 13.9426 35.7062 13.6125 
822 1 1 13.2172 35.92 13.5901 
823 1 1 15.4735 35.0935 13.2218 
824 1 1 16.1886 34.5545 12.7293 
825 1 1 16.5126 33.8677 12.4004 
826 1 1 18.5814 34.0801 10.5883 
827 1 1 17.2085 33.4223 11.8808 
828 1 1 17.7891 33.0442 11.2589 
829 1 1 18.428 33.1948 10.6469 
830 1 1 18.6931 36.8976 5.79479 
831 1 1 19.1166 36.4342 6.22659 
832 1 1 19.3825 35.7467 6.30963 
833 1 1 19.6021 35.4047 7.20355 
834 1 1 18.9851 34.4913 9.83249 
835 1 1 19.5076 35.1159 8.10308 
836 1 1 19.239 34.806 9.02924 
837 1 1 9.57725 41.4404 7.0809 
838 1 1 10.2138 41.1888 6.37404 
839 1 1 8.63927 39.5514 9.89345 
840 1 1 8.75788 38.9698 10.6618 
841 1 1 9.21998 40.6793 7.6852 
842 1 1 8.90981 39.9109 8.34407 
843 1 1 8.79067 39.2534 8.95199 
844 1 1 10.9759 41.0768 5.77449 
845 1 1 11.7895 40.7934 5.25476 
846 1 1 12.7144 40.583 4.93158 
847 1 1 17.2463 39.1271 5.30425 
848 1 1 18.1771 37.5139 5.41247 
849 1 1 17.4762 38.1249 5.04266 
850 1 1 16.4668 39.6629 4.98933 
851 1 1 15.3995 40.0647 4.78426 
852 1 1 13.5903 40.2779 4.72475 
853 1 1 14.3227 39.8859 4.59506 
854 1 1 14.6435 35.2317 13.3798 
855 1 1 9.1018 38.2801 11.3736 
856 1 1 9.67069 37.6282 11.9231 
857 1 1 12.6045 35.4888 13.3208 
858 1 1 10.3349 36.9827 12.4131 
859 1 1 11.8895 35.9812 13.1744 
860 1 1 11.1025 36.501 12.8542 
861 1 1 13.5117 35.0094 13.2861 
862 1 1 12.6937 34.7252 13.002 
863 1 1 15.1339 34.3149 13.0246 
864 1 1 15.6994 33.6116 12.6638 
865 1 1 16.308 33.1415 12.3008 
866 1 1 16.6744 32.5638 11.9285 
867 1 1 18.9427 33.4568 9.88607 
868 1 1 17.2846 32.5138 11.501 
869 1 1 17.967 32.3662 10.8494 
870 1 1 18.6151 32.2322 9.89397 
871 1 1 18.3672 36.6729 5.13824 
872 1 1 18.8522 35.9197 5.47217 
873 1 1 19.335 35.1327 5.88159 
874 1 1 19.563 34.7791 6.56063 
875 1 1 19.6274 34.5124 7.41411 
876 1 1 19.2185 33.8264 9.16057 
877 1 1 19.4317 34.1501 8.32004 
878 1 1 9.74381 40.429 6.84989 
879 1 1 10.4155 40.2239 6.04591 
880 1 1 8.7867 38.5749 9.68797 
881 1 1 8.95565 37.9549 10.4602 
882 1 1 9.37532 39.6656 7.41813 
883 1 1 9.05652 38.9589 8.0077 
884 1 1 8.8879 38.3411 8.66371 
885 1 1 11.09 40.0811 5.46024 
886 1 1 11.9224 39.8629 4.99 
887 1 1 12.7987 39.6356 4.62601 
888 1 1 16.6354 38.5984 4.63722 
889 1 1 17.0576 37.7142 4.44489 
890 1 1 17.7259 37.0719 4.70371 
891 1 1 15.8337 39.1361 4.59563 
892 1 1 15.0363 39.3948 4.49163 
893 1 1 13.6171 39.3373 4.37804 
894 1 1 14.3572 39.1241 4.2806 
895 1 1 14.2051 34.2737 13.0769 
896 1 1 9.31646 37.2534 11.1534 
897 1 1 9.80967 36.6467 11.6197 
898 1 1 11.8542 34.9342 12.7213 
899 1 1 10.4576 36.0751 12.1263 
900 1 1 11.127 35.6288 12.4905 
901 1 1 13.2721 34.1687 12.8964 
902 1 1 12.4278 34.056 12.6451 
903 1 1 14.8155 33.5195 12.8424 
904 1 1 15.4032 32.8013 12.4887 
905 1 1 15.9817 32.1085 12.0201 
906 1 1 16.7532 31.8715 11.527 
907 1 1 19.0613 32.6803 9.09004 
908 1 1 17.4117 31.6806 10.9367 
909 1 1 17.9753 31.5529 10.2727 
910 1 1 18.3217 31.4119 9.54937 
911 1 1 18.7274 31.7569 8.98322 
912 1 1 18.2961 36.0596 4.66061 
913 1 1 18.5105 35.3431 4.70278 
914 1 1 18.9301 34.9091 5.22179 
915 1 1 19.2492 34.3398 5.78711 
916 1 1 19.489 33.9094 6.69835 
917 1 1 19.4996 33.5401 7.49831 