ITEM: TIMESTEP
100000000
ITEM: NUMBER OF ATOMS
51222
ITEM: BOX BOUNDS pp pp pp
0 62
0 62
0 62
ITEM: ATOMS id mol type x y z vx vy vz 
1 1 3 32.8045 5.34109 3.32589 -0.0455628 -0.212599 0.00138948
2 1 1 32.5148 5.17701 4.09827 -0.0879529 -0.145324 0.0247771
3 1 1 33.0056 4.49358 3.49119 -0.142704 -0.126376 -0.154365
4 1 1 32.6071 4.24301 4.3505 0.139333 -0.0450814 0.166123
5 1 3 33.0843 4.77318 2.63557 -0.0620338 0.00778031 0.092326
6 1 1 32.9808 3.59327 3.55082 -0.064891 0.0508824 -0.0254534
7 1 1 32.543 3.2534 4.35279 0.0046521 0.119588 -0.0285473
8 1 1 32.3747 6.01181 3.65741 0.0485578 0.0268987 0.105582
9 1 3 31.9227 5.93047 4.55552 0.0330321 0.0124466 -0.201586
10 1 1 32.0795 5.02389 4.85631 -0.0438249 -0.0660371 0.0521584
11 1 1 32.1158 4.09234 5.0357 0.00170315 0.0221481 0.147313
12 1 1 31.8588 3.26095 5.1391 -0.0379643 0.0435281 0.134832
13 1 3 32.6809 6.09589 2.7292 -0.0260634 0.0729337 -0.0975441
14 1 1 32.9732 5.45263 2.498 0.144177 -0.0271656 -0.0076877
15 1 1 33.0209 5.13503 1.80926 0.0670148 -0.117118 0.109741
16 1 1 33.2202 3.94065 2.7096 -0.140332 0.162255 0.101161
17 1 3 33.1743 4.19511 1.78298 0.0247712 -0.0478966 0.0401303
18 1 1 32.0266 2.61574 4.75235 -0.0607588 0.00157361 0.088478
19 1 1 32.4346 2.30969 4.07252 0.194468 -0.0442075 0.0468922
20 1 1 32.8082 2.69304 3.49995 -0.0945787 -0.0622519 -0.135491
21 1 3 33.1618 2.97883 2.70547 0.0968966 -0.119951 -0.0588147
22 1 1 32.4183 6.68049 2.36029 0.0346153 -0.0341116 0.0650067
23 1 1 32.14 6.66898 3.30676 0.0597577 0.0955458 -0.0509834
24 1 1 31.6586 6.65779 4.11283 -0.0689346 0.231826 0.13022
25 1 3 31.2047 6.52297 4.80322 0.000952465 -0.0421312 -0.0691731
26 1 1 31.3416 5.70472 5.37459 0.195588 0.00349885 0.0524734
27 1 1 31.3974 4.75451 5.56684 -0.164148 -0.0643851 -0.106535
28 1 1 31.4229 2.5005 5.27997 -0.247677 0.170709 -0.0729272
29 1 3 31.3021 3.81761 5.70847 -0.0152285 -0.0397905 -0.133405
30 1 1 31.0475 2.98757 5.69932 0.193296 0.0481937 0.000436131
31 1 1 32.8011 6.04528 1.72548 0.0478568 -0.0269307 0.211558
32 1 1 32.9252 5.45238 1.09155 0.0046962 -0.0539743 -0.166566
33 1 3 33.1417 4.55785 0.979127 0.0983301 -0.033944 0.195563
34 1 1 33.2584 3.31121 1.76898 0.0157981 -0.0694298 0.0156851
35 1 1 33.2034 3.77271 1.0134 -0.0277361 -0.00337037 -0.0976714
36 1 1 31.8027 1.92264 4.59901 -0.00754621 0.00844115 0.0493277
37 1 3 32.043 1.4454 3.92239 0.0492531 0.025251 0.138802
38 1 1 31.1957 1.71064 5.06866 -0.0186596 0.0580031 -0.164312
39 1 1 32.4672 1.70021 3.29769 -0.0413364 -0.0814259 -0.0725118
40 1 1 32.8178 2.0231 2.78075 0.121366 0.0372859 -0.0872908
41 1 3 33.1169 2.34894 1.81461 0.200132 -0.190387 0.0735811
42 1 1 32.3423 6.88836 1.68349 -0.0127911 0.249609 0.104053
43 1 1 31.7964 7.47315 2.14753 0.13738 -0.223188 0.0518247
44 1 1 31.6911 7.39557 2.95452 0.0515863 0.111093 -0.0821741
45 1 3 31.5706 7.18153 3.62654 0.0572391 -0.205062 -0.108281
46 1 1 31.0196 7.25017 4.2241 -0.0746554 0.0275548 0.070948
47 1 1 30.4642 7.13377 4.80667 -0.124453 -0.0642678 0.16731
48 1 1 30.5211 6.28716 5.42778 -0.221509 -0.165523 0.0863164
49 1 3 30.6245 5.36864 5.89962 0.0734536 0.102499 -0.182553
50 1 1 30.5803 4.40629 6.06178 -0.0995556 0.0378805 -0.0584722
51 1 1 30.7791 2.20555 5.66332 -0.0778854 -0.047711 -0.047628
52 1 1 30.4298 3.56117 6.08522 -0.0998734 -0.0286183 -0.0943235
53 1 3 30.4086 2.73032 5.96896 0.061691 -0.00714292 -0.0094767
54 1 1 32.431 6.69664 0.99725 0.0385355 -0.0947439 0.158418
55 1 1 31.8548 7.47807 0.840676 0.0418125 0.0592965 -0.029183
56 1 1 32.6249 6.08492 0.812813 0.12961 0.109895 -0.178055
57 1 3 32.9041 5.26058 0.359365 0.0310679 -0.0345931 0.0840051
58 1 1 32.2444 6.44858 0.0125245 -0.241374 -0.0705147 -0.0989986
59 1 1 32.9847 4.31038 0.124632 0.228972 -0.127462 0.128403
60 1 1 33.1267 2.80614 0.942935 -0.139536 -0.00204286 0.255896
61 1 3 32.9615 3.4097 0.162421 -0.0221148 -0.0763708 -0.150033
62 1 1 32.0548 1.04046 3.32773 -0.203413 -0.0296569 0.00336631
63 1 1 31.4055 1.11907 4.49435 0.00873769 0.0196653 -0.245673
64 1 1 31.4864 0.670019 3.74906 -0.00644531 -0.0327031 -0.0191044
65 1 3 30.3201 1.64076 5.51015 -0.0635477 -0.0207123 0.0190855
66 1 1 30.6098 1.01324 4.87633 0.0781884 -0.0172316 -0.133932
67 1 1 32.3056 1.0803 2.63249 -0.0425053 0.135491 0.0107411
68 1 1 32.7381 1.49048 1.89149 0.0607818 0.0485997 -0.0805262
69 1 3 32.9294 1.92662 0.927627 0.121773 -0.054492 -0.128952
70 1 1 31.6736 7.65158 1.61808 -0.00150054 -0.22454 0.0367943
71 1 1 31.2275 7.98746 2.36509 -0.187783 -0.194645 0.2012
72 1 1 30.8906 7.8733 3.39322 0.0554949 0.0234735 0.074716
73 1 3 30.1431 7.80527 4.16232 -0.0287874 0.0106219 0.0880963
74 1 1 29.639 7.50263 4.77856 -0.0517386 -0.0984069 -0.0759695
75 1 1 29.7664 6.85504 5.37473 0.158823 0.0826555 0.042439
76 1 1 29.7982 5.98405 5.97399 0.188335 0.0329389 -0.0702256
77 1 3 29.9223 4.97857 6.28567 0.0362157 -0.114399 0.0768336
78 1 1 29.7694 4.12005 6.38328 -0.0942187 0.115572 0.00441869
79 1 1 29.9158 2.28271 6.0075 -0.023489 0.0881043 -0.0597302
80 1 1 29.5501 3.10595 6.30951 0.0795804 -0.0956633 0.0827168
81 1 3 29.3855 1.58804 5.8149 0.0898799 -0.0219275 -0.0302177
82 1 1 31.1397 8.08232 0.944579 0.0671427 0.239601 -0.0835995
83 1 1 31.8415 7.12592 0.11389 0.00312704 -0.0444339 0.0506788
84 1 1 31.3968 7.74072 0.304499 0.0397776 -0.115358 -0.0479316
85 1 3 32.4483 5.94658 61.8629 0.0350852 0.144121 -0.00553551
86 1 1 32.6316 5.01533 61.4809 -0.07975 -0.0209768 -0.117066
87 1 1 31.9615 6.45335 61.3257 -0.0425903 0.00269929 -0.0301516
88 1 1 32.6672 4.04349 61.3314 -0.0523991 0.0391262 0.00022232
89 1 3 32.8344 2.44414 0.0154596 -0.0869674 -0.00925862 -0.0311065
90 1 1 32.6095 3.18004 61.2506 0.00303221 -0.0705582 0.153313
91 1 1 31.694 0.368688 2.74982 0.0899057 0.134373 -0.0860935
92 1 1 30.8105 0.467169 4.21384 0.0177778 -0.0978424 -0.0860193
93 1 3 30.9263 0.0380885 3.33719 0.0048765 0.129732 0.0322268
94 1 1 29.7488 0.918927 5.21 0.0580944 0.288544 0.135229
95 1 1 30.0405 0.284952 4.54442 -0.110221 0.144815 0.0813243
96 1 1 32.0754 0.654495 1.83444 0.0693555 0.136513 0.00111981
97 1 3 32.4579 1.1274 1.06072 0.202588 0.00683049 -0.17993
98 1 1 32.4466 1.62238 61.9276 0.0879755 -0.00555726 -0.053986
99 1 1 30.8521 8.33146 1.69149 -0.00404691 -0.0277498 0.171496
100 1 1 30.3619 8.50453 2.54756 0.0042626 0.0755905 0.0825086
101 1 3 29.8373 8.39753 3.34853 0.0447995 -0.0274821 0.122848
102 1 1 29.2241 8.24999 4.07929 -0.198676 0.101094 -0.125291
103 1 1 29.062 7.22557 5.28646 0.109251 0.0050741 0.113912
104 1 1 28.829 7.86136 4.81043 0.013434 -0.024863 -0.136791
105 1 3 28.8595 6.44873 5.86446 -0.187645 -0.0802654 0.0572363
106 1 1 29.0793 5.42908 6.3655 0.0866692 -0.0514211 0.303994
107 1 1 29.0361 4.55953 6.53657 0.00431047 0.161102 -0.0283103
108 1 1 29.0174 3.79778 6.51121 -0.0984717 0.0838698 -0.047503
109 1 3 28.8023 0.869272 5.49999 0.0052887 -0.146502 0.112022
110 1 1 28.9656 2.31796 6.17031 0.075325 -0.0852931 -0.198168
111 1 1 28.6061 3.13421 6.46358 -0.103365 0.0157477 0.0896946
112 1 1 28.365 1.62421 5.97636 -0.064686 -0.164363 -0.0498991
113 1 3 30.7809 8.00102 61.9757 0.0919624 0.0872068 0.0594792
114 1 1 30.4668 8.48771 0.79751 -0.0597839 0.0695839 0.0864189
115 1 1 31.2294 7.29568 61.2313 -0.0495306 -0.169922 0.0359598
116 1 1 30.436 7.81295 61.0912 0.0381097 -0.00415531 0.116785
117 1 3 32.1409 5.71018 60.8817 -0.0315684 0.182858 -0.0747025
118 1 1 32.2387 4.75136 60.6208 -0.0972574 0.123368 -0.0569679
119 1 1 31.4882 6.3519 60.4832 -0.275342 0.047749 -0.111582
120 1 1 32.2411 3.75148 60.5239 -0.0310719 -0.0181357 0.084625
121 1 3 32.3299 2.26339 61.1685 0.0299347 -0.0829794 0.0814711
122 1 1 32.0646 3.00053 60.4796 -0.233255 0.0561306 -0.01797
123 1 1 31.4454 61.9343 1.81145 0.0602825 -0.079972 -0.038611
124 1 1 31.1161 61.8136 2.49368 0.0575808 -0.00629553 0.013019
125 1 3 30.3565 61.8539 3.74047 -0.148346 -0.0108089 -0.021209
126 1 1 30.5849 61.5812 2.80525 0.0333552 -0.0263514 0.087774
127 1 1 29.2301 0.195239 4.95913 0.121906 0.0998859 0.0470103
128 1 1 29.4558 61.6777 4.19555 -0.0343947 -0.0813507 -0.056957
129 1 3 28.3699 0.0988181 5.18785 0.0199953 0.0292751 -0.157735
130 1 1 31.9059 1.3985 61.1806 0.111739 -0.139964 -0.0036568
131 1 1 31.7977 0.312014 0.999573 -0.0130776 0.0564122 0.000305253
132 1 1 31.9519 0.781943 61.9497 0.0709859 0.0696613 -0.0988625
133 1 3 30 8.73459 1.57858 0.0371777 -0.0209324 -0.0300111
134 1 1 29.521 8.81217 2.54128 -0.229323 0.115571 -0.0862082
135 1 1 28.3421 8.2062 4.43655 0.0353599 -0.0890254 -0.0979971
136 1 1 28.9576 8.65278 3.24984 -0.0506826 0.126068 -0.0987128
137 1 3 28.3284 8.53353 3.80336 -0.177017 0.130999 -0.0329578
138 1 1 28.3354 7.31963 5.38931 0.0541298 0.097711 0.084918
139 1 1 27.9691 7.84094 4.87312 0.0166417 -0.0768047 0.0390202
140 1 1 27.8528 6.60216 5.87279 0.151446 -0.0934799 0.118148
141 1 3 28.1906 5.71288 6.31734 -0.0214593 -0.00743784 0.0235332
142 1 1 28.3583 5.01635 6.54562 0.115795 0.0547024 0.0604774
143 1 1 28.1953 4.102 6.57598 0.0298027 -0.0109276 0.152708
144 1 1 27.9129 0.877389 5.72252 -0.0606374 0.00593403 -0.0229751
145 1 3 28.1531 2.49658 6.35188 0.02764 -0.0733648 -0.0986698
146 1 1 27.9219 3.20023 6.54011 0.160141 0.171721 0.0669891
147 1 1 27.481 1.55787 6.13701 0.0323206 -0.0475293 0.0871765
148 1 1 30.1008 8.35679 61.7978 0.000182125 -0.0766158 0.00347722
149 1 3 29.5319 8.7543 0.61082 0.0305847 -0.0575212 -0.181615
150 1 1 30.7303 6.93902 60.2929 -0.133709 -0.0278559 0.0285834
151 1 1 29.5993 8.20191 61.0494 0.0585606 0.212086 0.111362
152 1 1 29.8893 7.45954 60.2322 0.0174159 0.117669 0.218571
153 1 3 31.5982 5.38256 60.0516 0.076612 -0.208848 -0.000574622
154 1 1 31.6741 4.3978 59.9091 0.049507 0.138513 0.0253609
155 1 1 30.9301 6.12538 59.878 0.0846332 -0.0701702 0.101337
156 1 1 31.561 3.37284 59.8912 0.10028 0.0336689 -0.128498
157 1 3 31.7652 2.09367 60.5247 0.0553816 0.0904036 -0.0636157
158 1 1 31.532 2.67344 60.08 0.294798 0.0922405 -0.0473658
159 1 1 31.2098 61.7951 1.16272 -0.101227 -0.155382 -0.106972
160 1 1 30.6164 61.4123 1.78407 -0.0418328 -0.123442 -0.0768277
161 1 3 29.9393 61.19 2.42143 0.161638 -0.0720777 0.0278147
162 1 1 29.6908 61.3044 3.30634 0.181521 -0.0616434 -0.136505
163 1 1 28.6982 61.5622 4.6765 -0.104233 0.00950382 0.0573909
164 1 1 28.8589 61.1941 4.01349 0.0461871 -0.100983 0.0129107
165 1 3 27.5166 0.14885 5.46873 -0.139124 -0.00623673 0.0702428
166 1 1 27.9503 61.5304 4.99337 -0.13734 -0.015111 0.00682293
167 1 1 31.4868 0.907379 61.1215 0.135186 -0.140483 0.0569541
168 1 1 31.3374 1.4318 60.5423 -0.0633522 -0.132708 0.114876
169 1 3 31.213 61.9273 0.380605 -0.132524 -0.0170217 0.000815688
170 1 1 31.1063 0.285935 61.4716 -0.112834 0.161649 0.144898
171 1 1 29.0686 8.95422 1.47013 -0.0161734 0.0290627 -0.0887438
172 1 1 28.5336 9.00276 2.34215 -0.0722158 0.169951 -0.0806829
173 1 3 27.6678 8.28801 4.25097 -0.0340512 0.0991403 -0.0750144
174 1 1 27.9891 8.83861 2.93065 -0.071079 -0.0508417 -0.154029
175 1 1 27.6111 8.58787 3.60594 0.057426 0.101686 -0.186011
176 1 1 27.1162 7.78464 4.68304 0.0280711 0.0115289 0.0323602
177 1 3 27.4498 7.34941 5.32049 0.015809 0.0283243 -0.0108232
178 1 1 26.948 6.60973 5.70157 -0.109771 0.0130077 0.0442271
179 1 1 27.2542 5.79687 6.1953 0.0840108 -0.115555 0.083275
180 1 1 27.6077 4.96992 6.51623 0.0612261 0.0107752 -0.0237819
181 1 3 27.2216 4.34496 6.55631 -0.0605039 -0.175401 0.172686
182 1 1 27.3024 3.61867 6.59769 0.000720445 -0.0407881 0.213627
183 1 1 26.924 0.796956 5.87956 -0.199051 -0.0569337 0.0242321
184 1 1 26.7022 61.9782 5.58655 -0.0441338 0.225028 -0.000246076
185 1 3 27.2186 2.57881 6.49024 0.070672 0.0548147 0.104442
186 1 1 26.7992 1.62064 6.27741 0.00104749 0.108094 0.147096
187 1 1 29.1615 8.68412 61.7372 0.133529 0.160482 -0.111889
188 1 1 28.5766 8.88971 0.611973 0.235191 -0.0563685 -0.000262402
189 1 3 30.2006 6.60072 59.6921 0.0113539 -0.131917 -0.0611795
190 1 1 29.5404 6.86283 59.5518 -0.0914437 0.013616 -0.046076
191 1 1 28.8322 8.37001 61.0746 0.0522198 0.0486086 -0.142224
192 1 1 29.0309 7.93178 60.5054 0.0666961 -0.0390675 -0.169853
193 1 3 29.1048 7.40958 59.9217 -0.15064 0.12335 -0.0932775
194 1 1 30.9686 5.1714 59.4186 -0.0266522 0.119732 -0.116563
195 1 1 30.9689 4.09584 59.2366 -0.0910443 0.118092 -0.242384
196 1 1 30.254 5.64986 59.1785 -0.188141 -0.0648761 0.0521589
197 1 3 30.8953 2.94547 59.462 -0.13423 -0.104309 -0.098475
198 1 1 31.0612 2.09224 59.9279 0.104877 -0.015124 -0.0560388
199 1 1 30.6513 61.5055 0.829909 0.135219 -0.070386 0.0565318
200 1 1 30.0193 61.2282 1.06591 -0.157456 0.0244173 -0.0430082
201 1 3 29.7131 61.0542 1.73034 -0.0503336 -0.00563256 0.047143
202 1 1 29.2283 60.8725 2.50722 0.0764616 0.0378467 -0.161199
203 1 1 28.6245 60.7277 3.36992 -0.0567949 0.0773051 -0.0545543
204 1 1 27.9981 60.8735 4.32085 0.0538161 -0.0641911 -0.0587105
205 1 3 27.0316 61.1889 5.06479 -0.17559 -0.286783 -0.0271695
206 1 1 30.8562 0.75248 60.7136 -0.0551941 0.0135363 0.0657964
207 1 1 30.4929 1.31915 60.0481 -0.0248691 -0.162209 0.0288514
208 1 1 30.5137 61.7311 61.8568 -0.0806556 0.0429353 0.0750734
209 1 3 30.3073 0.0969656 60.9962 -0.0658246 0.189026 -0.0871501
210 1 1 28.1202 8.95798 1.45112 0.042971 0.0667788 -0.0381865
211 1 1 27.5127 8.89477 2.07709 0.0169365 -0.0935586 0.0599111
212 1 1 26.9715 8.28009 3.89155 -0.164425 0.134963 -0.0694279
213 1 3 26.9518 8.56947 2.90311 -0.117989 -0.0977625 0.0111654
214 1 1 26.3731 7.71441 4.2276 -0.174991 -0.0148544 -0.0180579
215 1 1 26.5398 7.21039 5.05124 0.0190354 0.0583154 0.0775691
216 1 1 26.0662 61.5598 5.49728 0.0289727 -0.0123314 -0.0215275
217 1 3 25.9493 0.338599 5.91802 0.0479892 -0.0614887 -0.0935199
218 1 1 26.0243 6.57491 5.3671 -0.130676 -0.0496651 -0.023922
219 1 1 26.2341 5.88367 5.95798 -0.0926962 -0.035655 -0.0835504
220 1 1 26.5738 5.01901 6.37082 -0.0994639 0.0412679 0.138284
221 1 3 26.5091 4.0417 6.53717 0.0313742 0.0163043 0.103139
222 1 1 26.3829 3.23113 6.59729 0.075295 0.163171 0.0209482
223 1 1 26.1408 1.26552 6.21285 -0.0579763 0.147694 0.213712
224 1 1 26.2582 2.19416 6.44705 -0.0115359 0.041695 -0.0701502
225 1 3 27.5326 8.8548 0.703597 -0.066051 0.0548782 0.17624
226 1 1 28.1204 8.6026 61.7344 -0.0974976 -0.0467056 -0.180508
227 1 1 29.466 6.03872 59.0864 0.202163 -0.101949 0.0275532
228 1 1 28.9434 6.43425 59.1742 -0.114608 -0.00848853 -0.0490805
229 1 3 28.6426 6.99635 59.4915 0.0958559 0.124981 0.0640997
230 1 1 28.1786 8.1008 60.6923 0.00286406 0.0407002 0.00901862
231 1 1 28.4732 7.57768 60.0286 0.0576352 0.0873538 0.0741485
232 1 1 30.2734 4.6687 58.9621 -0.234598 -0.0388911 0.141474
233 1 3 30.1058 3.70272 58.9085 -0.0463808 -0.0376207 -0.20032
234 1 1 29.5604 5.06858 58.8227 0.0722709 0.066257 0.179312
235 1 1 29.7988 2.90856 59.0264 -0.184244 -0.0944609 0.0689707
236 1 1 30.2394 2.09778 59.4587 -0.129154 -0.0990462 -0.222889
237 1 3 29.8467 61.3121 0.317911 0.0364281 -0.165187 -0.0375002
238 1 1 29.1976 60.8342 0.82596 0.0664816 -0.211985 -0.136577
239 1 1 28.8418 60.6104 1.78156 0.0175562 -0.0550836 0.0611361
240 1 1 28.3037 60.3655 2.69619 -0.0186129 -0.0402555 0.0309035
241 1 3 27.6351 60.3303 3.49223 0.119387 -0.173824 0.218849
242 1 1 26.9646 60.3991 4.26354 0.0104553 -0.0334455 -0.0438193
243 1 1 26.1263 60.7858 4.90458 -0.0291261 0.0975166 -0.0487879
244 1 1 30.0423 0.673467 60.2885 0.153015 -0.127479 0.0683715
245 1 3 29.7261 1.36385 59.6304 -0.00364183 -0.0209191 0.144339
246 1 1 29.6291 61.545 61.4 0.161322 -0.237355 -0.0150575
247 1 1 29.4958 0.0470967 60.5878 0.157144 0.0931216 -0.187732
248 1 1 27.1078 8.81389 1.45078 0.211508 0.0930906 0.163525
249 1 3 26.6756 8.64629 2.02329 -0.0629215 -0.0262658 -0.0379172
250 1 1 26.2389 8.0939 3.38364 -0.235929 0.0475114 -0.0324704
251 1 1 26.1698 8.30112 2.32507 0.0751575 -0.058653 -0.0112593
252 1 1 25.4508 7.51356 3.76568 0.180993 0.0267409 -0.00347564
253 1 3 25.7639 7.21107 4.59575 0.14112 0.18617 -0.046172
254 1 1 25.173 61.1029 5.32505 0.0189355 -0.0604021 0.0626112
255 1 1 25.1882 61.9232 5.76725 -0.205904 -0.107451 0.0100445
256 1 1 25.2411 0.866053 6.19059 0.0685678 -0.0400761 0.0335512
257 1 3 25.2226 6.61262 4.9689 0.269943 0.146618 0.00881803
258 1 1 25.447 5.97834 5.58131 0.0780602 -0.071637 -0.0160976
259 1 1 25.7021 5.38073 5.98705 0.0582528 0.00145302 -0.0432541
260 1 1 25.6705 4.56663 6.27859 -0.063447 -0.131838 -0.0291496
261 1 3 25.526 3.81344 6.44939 -0.0571423 0.190729 0.0179131
262 1 1 25.5167 2.79949 6.47416 0.0641212 0.101186 0.0129592
263 1 1 25.4337 1.83268 6.39488 0.00541985 -0.0191235 -0.012033
264 1 1 26.8446 8.64566 0.797814 -0.015213 0.0327967 0.053295
265 1 3 27.0412 8.53095 0.0293816 -0.0462878 -0.0405315 0.00135388
266 1 1 27.3412 8.20293 61.0519 -0.0668089 -0.0983106 -0.0786109
267 1 1 28.6688 5.49172 58.8436 0.0499735 0.0804282 0.130339
268 1 1 28.1287 6.35389 59.084 0.0727624 0.0678622 -0.096054
269 1 3 27.8679 7.08392 59.5388 0.0578394 -0.130009 -0.068022
270 1 1 27.5477 7.64964 60.1906 -0.0601985 -0.149854 0.0849164
271 1 1 29.3361 4.25916 58.6972 0.0538804 0.127417 -0.10611
272 1 1 29.4191 3.47413 58.807 -0.0660154 -0.104431 -0.0322376
273 1 3 28.8205 4.67308 58.6715 0.130462 0.0674543 0.0225827
274 1 1 28.8765 2.97327 58.7905 -0.0295077 -0.133062 -0.0384159
275 1 1 29.2765 2.17088 59.1428 -0.0169561 0.013715 -0.031066
276 1 1 29.0153 61.0241 61.8022 -0.0711421 -0.0153799 0.0368493
277 1 3 28.4845 60.6313 0.172218 -0.043864 -0.142059 -0.103052
278 1 1 28.2642 60.3633 0.951236 0.0365187 -0.335058 -0.156828
279 1 1 27.9713 60.1918 1.73996 0.0306616 0.0761246 0.00941792
280 1 1 27.3913 60.014 2.58734 -0.0329983 -0.0874765 -0.20218
281 1 3 26.8293 59.9833 3.36099 0.114358 0.0903427 0.237739
282 1 1 26.1179 60.0602 4.219 -0.000489582 -0.0526008 0.118249
283 1 1 25.2835 60.3286 4.78392 0.0693915 -0.0780021 0.0526969
284 1 1 29.2069 0.597573 59.8736 0.084354 0.257715 0.0699356
285 1 3 28.8044 1.24019 59.3174 -0.0243159 0.030593 -0.0247448
286 1 1 28.8879 61.3879 60.865 -0.0406702 -0.0230709 -0.0594117
287 1 1 28.678 61.9816 60.1749 0.0226778 0.105814 0.139757
288 1 1 26.1874 8.37103 1.35801 0.0486915 0.302436 -0.0284579
289 1 3 25.6232 7.89658 2.90795 0.132625 -0.0223574 -0.0430857
290 1 1 25.6023 7.95831 2.13312 -0.0405884 0.0661781 0.23335
291 1 1 24.3746 60.6795 5.228 0.0627887 -0.0387945 0.0307877
292 1 1 24.8104 7.35733 3.24719 0.0592496 0.026949 0.106916
293 1 3 24.9241 7.05761 4.12962 -0.119611 -0.0848388 -0.0302205
294 1 1 24.3579 61.5711 5.68444 0.0249852 0.0541552 -0.0492781
295 1 1 24.4478 0.440947 6.06573 -0.0242071 0.106999 0.150486
296 1 1 24.5345 1.37895 6.38229 -0.12564 0.0167757 0.0645589
297 1 3 24.4488 6.48494 4.62557 0.0277832 0.104233 0.142454
298 1 1 24.8079 6.13424 5.23668 0.0641531 -0.0787625 0.129844
299 1 1 24.7716 5.19668 5.79735 -0.0642988 0.179119 -0.0202817
300 1 1 24.6683 4.28297 6.13676 -0.101846 0.0891532 -0.144508
301 1 3 24.6537 3.38361 6.3439 -0.237595 -0.098186 0.151764
302 1 1 24.6374 2.38416 6.44016 -0.121049 0.0363978 -0.0457322
303 1 1 26.7492 7.74202 60.5957 0.0647076 -0.205833 -0.0741728
304 1 1 26.2308 8.36503 0.37847 0.114693 -0.12733 0.137368
305 1 3 26.4606 8.15367 61.4076 -0.0609525 -0.0638978 0.00383489
306 1 1 28.0484 4.75438 58.748 0.0235022 0.0762224 -0.023235
307 1 1 27.6682 5.61444 58.9069 -0.101454 -0.143797 0.126884
308 1 1 27.3234 6.40485 59.2458 0.13485 0.153339 0.0748782
309 1 3 27.0249 7.10719 59.8011 -0.157387 -0.0667499 -0.121884
310 1 1 28.4882 3.81469 58.6597 -0.00759808 -0.0330755 -0.0431918
311 1 1 28.0843 2.86413 58.6293 -0.00966545 -0.0692873 -0.0891113
312 1 1 28.3016 2.06328 58.8747 0.0979384 -0.145903 0.060468
313 1 3 28.1876 60.8367 61.3423 -0.0184765 -0.030703 -0.0663817
314 1 1 27.7824 60.336 0.0527678 0.09171 -0.0386252 0.147621
315 1 1 27.4114 59.9688 0.931806 0.106643 0.204996 -0.00769507
316 1 1 27.0344 59.7232 1.67928 -0.206852 -0.0459203 -0.0893233
317 1 3 26.4628 59.636 2.54225 0.0470347 -0.0766209 0.00906619
318 1 1 25.8487 59.5788 3.37221 -0.108984 0.11178 -0.170379
319 1 1 25.1133 59.6251 4.13742 -0.00224398 -0.0105572 -0.110901
320 1 1 24.3539 59.8926 4.72793 0.184141 0.029988 -0.0193677
321 1 3 28.3475 0.508636 59.5655 -0.174508 0.00502111 -0.0947288
322 1 1 28.1131 1.04799 59.2077 0.0466813 -0.0790037 -0.0488401
323 1 1 28.0691 61.4159 60.4712 0.0504693 0.17425 -0.0899128
324 1 1 27.992 61.9444 59.8653 -0.0160733 -0.192357 0.0689913
325 1 3 25.5299 8.02207 0.648435 0.0018659 0.0628151 -0.112189
326 1 1 25.2987 7.86499 1.29201 -0.0630852 0.0246849 0.0312884
327 1 1 24.8594 7.57615 2.21632 0.278062 -0.0419142 0.0773626
328 1 1 24.1967 7.12514 2.84632 0.0323165 -0.112162 0.0625319
329 1 3 23.4907 60.1324 5.27729 -0.000267364 0.211554 0.142339
330 1 1 23.4925 61.0525 5.63683 -0.0383876 0.00569835 -0.0553397
331 1 1 24.0874 6.76117 3.70504 -0.0392386 -0.0532866 -0.0502052
332 1 1 23.5048 61.9679 6.06499 0.0727316 0.115467 0.153325
333 1 3 23.616 0.927743 6.30107 0.047314 -0.0295337 0.052173
334 1 1 23.7414 1.86877 6.42866 0.00515379 0.00324221 0.078066
335 1 1 23.7263 6.22674 4.42458 -0.0665367 0.0349713 -0.0068382
336 1 1 23.9153 5.68984 5.15806 0.167438 -0.0660441 -0.10513
337 1 3 23.7264 4.7388 5.67562 0.0251046 0.0100042 -0.167437
338 1 1 23.8409 3.81373 6.1061 0.125534 -0.137733 0.0447453
339 1 1 23.8169 2.81664 6.32233 0.0210737 0.119925 0.151401
340 1 1 27.6316 4.19687 58.6834 0.00127884 0.0833191 0.0454487
341 1 3 26.1892 7.07949 60.1398 0.0617415 0.153383 -0.0836843
342 1 1 25.868 7.49294 60.8769 -0.000981185 0.14327 0.0904167
343 1 1 25.6044 7.87155 61.7948 -0.0222506 -0.0569217 -0.173586
344 1 1 27.2205 4.79183 58.7587 -0.0877754 0.00251882 0.0607044
345 1 3 26.7189 5.62237 59.0576 0.0553262 -0.0476328 -0.0221972
346 1 1 26.4052 6.40669 59.5241 0.14096 0.0908826 -0.0938589
347 1 1 25.6035 6.37818 59.7763 0.0379152 -0.0278735 0.0852477
348 1 1 27.5964 3.31233 58.5666 0.0618409 -0.0740597 -0.00338312
349 1 3 27.4469 2.43431 58.6124 -0.00818287 0.146235 0.0353747
350 1 1 27.4769 1.4429 58.8548 0.235009 0.00393205 -0.0707798
351 1 1 27.5182 60.9052 60.721 -0.0978193 -0.00685962 0.0076382
352 1 1 27.2044 60.4049 61.2416 0.0477209 -0.00696705 0.0143011
353 1 3 26.9406 59.9155 0.0766679 0.0461915 0.037027 -0.129028
354 1 1 26.5774 59.5445 0.827695 -0.0087589 -0.0486637 0.0221619
355 1 1 26.1011 59.2912 1.66402 -0.161574 0.255797 0.0375735
356 1 1 25.5928 59.2019 2.52547 -0.0063248 0.102431 0.0959313
357 1 3 24.9568 59.1872 3.27609 0.015927 -0.0375439 -0.0120515
358 1 1 24.2551 59.2449 4.06554 -0.0998574 0.0185814 0.0126788
359 1 1 23.4529 59.3615 4.7536 -0.0906188 0.0432815 -0.00116313
360 1 1 27.3573 0.465037 59.2297 -0.0649374 -0.106977 -0.0365507
361 1 3 27.1669 61.4347 59.9121 -0.0623031 0.068668 0.0689954
362 1 1 24.9007 7.61318 0.552689 0.111473 0.0124013 0.0171566
363 1 1 24.4177 7.40572 1.24753 -0.0351299 0.0836678 0.0848117
364 1 1 23.8693 7.12155 2.07826 0.175125 -0.145425 -0.0712199
365 1 3 23.5248 6.77438 2.90434 0.0904632 0.202801 -0.000912487
366 1 1 22.6221 59.6159 5.41706 -0.132157 0.0314114 -0.160643
367 1 1 22.7198 60.4606 5.74953 0.07704 -0.0179824 0.085602
368 1 1 22.7106 61.4279 6.1195 0.00761366 0.130738 -0.010913
369 1 3 23.1954 6.34465 3.68604 0.131392 -0.0310463 0.00259648
370 1 1 22.7066 0.435124 6.27774 -0.0676671 0.0824416 0.118323
371 1 1 22.7447 1.46134 6.389 -0.000751925 0.0748535 -0.167433
372 1 1 22.9318 2.40849 6.31907 -0.0865872 0.206885 -0.12535
373 1 3 23.1048 5.7971 4.55499 0.112836 -0.0771697 0.0544635
374 1 1 22.9607 5.09208 5.1902 0.176912 0.102357 0.0384969
375 1 1 22.9395 4.23556 5.76311 -0.148256 -0.00855153 -0.0263761
376 1 1 22.9731 3.33335 6.10571 0.0493002 0.133588 -0.0155291
377 1 3 26.8453 3.90667 58.6356 0.0217554 -0.0272157 -0.0517881
378 1 1 25.3423 6.85559 60.3252 0.0426678 -0.00937046 -0.0217686
379 1 1 25.2178 7.16326 60.9933 0.0149013 0.0203213 -0.0864875
380 1 1 24.64 7.16351 61.6292 0.118059 -0.0531294 0.0897242
381 1 3 26.1964 4.81752 58.8262 -0.0852148 -0.116598 -0.00942576
382 1 1 25.8884 5.69596 59.1818 -0.216404 0.0561431 0.0205277
383 1 1 24.9738 5.69191 59.4559 -0.0143689 -0.10729 -0.0767922
384 1 1 24.932 6.31095 59.9754 0.135644 -0.0451513 -0.0187568
385 1 3 26.6909 2.85274 58.4873 0.219594 -0.0244359 0.0689458
386 1 1 26.6757 1.82267 58.5941 -0.025263 -0.0636773 -0.0446454
387 1 1 26.5662 0.892702 58.7383 -0.000283237 -0.0109832 0.243337
388 1 1 26.7383 60.6802 60.539 0.0894575 0.216967 -0.00387425
389 1 3 26.4862 60.034 61.2527 -0.0130943 -0.154975 0.0752899
390 1 1 26.1164 59.4488 0.0822905 0.000965187 0.133674 0.160757
391 1 1 25.5965 59.0658 0.77314 0.0113916 -0.00267927 -0.0258729
392 1 1 25.1875 58.7952 1.63118 0.0969183 -0.149223 -0.00870192
393 1 3 24.6473 58.7794 2.46483 -0.183396 0.0447043 -0.0829677
394 1 1 24.0512 58.7538 3.23172 -0.0413758 -0.0748799 0.089952
395 1 1 23.3709 58.7918 4.08284 0.170231 0.0524746 -0.0604366
396 1 1 22.6022 58.8417 4.8383 -7.0296e-05 -0.132876 -0.00311941
397 1 3 26.4436 61.9009 59.2424 -0.0236262 -0.00118589 0.0135948
398 1 1 26.178 61.0807 59.776 -0.033099 -0.200283 -0.0366731
399 1 1 24.0706 7.04026 0.404372 -0.00630471 -0.114966 0.115106
400 1 1 23.5156 6.91606 1.28834 0.0614038 0.0644992 -0.0439915
401 1 3 23.042 6.70318 2.07718 0.0391523 0.0940996 0.0306332
402 1 1 21.836 59.0731 5.44452 -0.130098 0.140622 0.0450178
403 1 1 22.6192 6.37313 2.93266 -0.0133989 -0.0382134 0.134194
404 1 1 21.8066 60.012 5.891 0.192302 -0.00456323 -7.79875e-05
405 1 3 21.8481 60.9144 6.1237 -0.0413185 -0.180511 -0.0241642
406 1 1 21.8934 61.8674 6.34999 0.0255009 0.018954 0.0687933
407 1 1 22.4281 5.97276 3.82477 0.0423403 -0.149844 0.0671948
408 1 1 21.9015 0.881239 6.38188 -0.055035 0.178905 0.050723
409 1 3 21.9143 1.94226 6.27319 -0.0884856 -0.12049 -0.0610825
410 1 1 22.084 2.8535 6.14266 -0.334225 -0.0869861 -0.0453829
411 1 1 22.2067 5.38936 4.588 0.0814907 -0.0213109 -0.105541
412 1 1 22.0962 4.68206 5.24919 -0.121014 0.0394859 -0.048059
413 1 3 22.0116 3.8526 5.78052 0.0674724 -0.021223 -0.0632595
414 1 1 25.8596 4.13587 58.7141 0.163846 0.141712 -0.0949813
415 1 1 25.825 3.36192 58.5877 -0.0610757 0.0800752 -0.0934772
416 1 1 24.4355 6.59351 60.7189 0.120325 -0.196614 0.0203494
417 1 3 23.8119 6.64611 61.4731 0.0743035 0.172259 0.0741335
418 1 1 25.3206 4.89009 58.9843 -0.280508 -0.0209455 -0.0158081
419 1 1 24.5327 5.09329 59.2968 -0.0954093 -0.054818 0.119894
420 1 1 24.0862 5.73194 59.9362 0.0206762 -0.0943077 -0.0291634
421 1 3 25.7499 2.45743 58.5225 0.161221 -0.121902 0.104169
422 1 1 25.7256 1.41968 58.5057 -0.0859764 -0.204416 0.0331776
423 1 1 25.7502 0.431847 58.6942 0.0848065 -0.0919104 0.214048
424 1 1 25.923 60.3053 60.5152 -0.0592829 0.00442872 -0.0141325
425 1 3 25.6558 59.6191 61.1664 -0.0380436 0.00443198 -0.161202
426 1 1 25.1424 59.0433 61.9337 0.150281 0.150253 0.0363646
427 1 1 24.7195 58.7165 0.741585 0.152923 -0.0543603 0.139645
428 1 1 24.2693 58.5401 1.55207 -0.0141004 0.086217 0.0852761
429 1 3 21.7905 58.3418 4.83684 0.0414354 0.0232419 0.106375
430 1 1 23.7183 58.3422 2.41981 -0.011424 0.0340357 0.0857902
431 1 1 23.1878 58.2507 3.19231 -0.00772361 -0.0267872 -0.0755564
432 1 1 22.5343 58.2522 4.09447 -0.169412 -0.022848 -0.242671
433 1 3 25.5589 61.5364 59.141 -0.0630282 0.12823 0.0375969
434 1 1 25.368 60.6866 59.7635 0.0411021 -0.0312743 -0.0487086
435 1 1 23.2519 6.60061 0.345265 0.035192 0.0548128 -0.0226634
436 1 1 22.647 6.43597 1.24927 0.106848 0.195743 0.0999421
437 1 3 22.1362 6.26033 2.11868 0.180742 -0.0247576 -0.0673401
438 1 1 21.0048 58.6079 5.41805 0.176844 -0.0804626 0.17619
439 1 1 20.9712 59.5659 5.94134 0.0498129 0.112075 0.102334
440 1 1 21.7202 6.01668 2.95313 0.0109648 -0.119298 -0.0667157
441 1 3 20.9737 60.4843 6.22749 -0.0520276 -0.0334338 0.0331628
442 1 1 20.9835 61.4159 6.37581 0.0458995 -0.0764808 -0.0668867
443 1 1 21.0057 0.405984 6.41226 0.033202 -0.0124871 -0.0951485
444 1 1 21.5983 5.54114 3.85804 0.0658486 -0.300528 -0.129924
445 1 3 21.0633 1.4323 6.27272 -0.0826415 0.0284182 0.11015
446 1 1 21.144 2.47711 6.11881 0.106108 -0.135379 0.220642
447 1 1 21.1135 3.42775 5.77879 -0.00677832 -0.100648 0.0234267
448 1 1 21.3279 4.9753 4.60154 0.162425 -0.0268681 0.0347031
449 1 3 21.1785 4.26877 5.26705 -0.0440788 0.0773694 0.112794
450 1 1 25.1083 3.94618 58.7197 0.000566094 0.192318 0.104792
451 1 1 25.031 2.9077 58.5456 -0.0800315 0.0859269 -0.150424
452 1 1 23.4772 6.05411 60.7643 -0.134157 0.0812762 0.161977
453 1 3 22.9026 6.14133 61.5731 -0.0924594 -0.083368 -0.0616535
454 1 1 24.3791 4.37367 59.0018 -0.112132 0.0695353 -0.0248225
455 1 1 23.8005 4.87247 59.464 0.0176036 -0.00269745 0.0162257
456 1 1 23.1938 5.28176 60.0979 -0.00692616 0.149239 -0.133244
457 1 3 24.8782 1.94792 58.3992 0.121132 -0.152916 -0.169256
458 1 1 24.9235 0.948707 58.3764 -0.0597189 -0.161474 -0.0218812
459 1 1 24.8729 -0.0408026 58.6327 0.0089424 -0.160476 0.0412193
460 1 1 25.0605 59.8692 60.4426 -0.0114577 -0.0226378 0.0032791
461 1 3 24.763 59.1511 61.0567 0.0228485 0.098259 0.0581258
462 1 1 24.2976 58.6538 61.8592 -0.0238013 -0.106616 -0.0173403
463 1 1 23.8292 58.3512 0.695643 -0.0815057 0.0362034 -0.10584
464 1 1 23.3683 58.1154 1.56715 0.123674 -0.0222179 0.0376745
465 1 3 20.9064 57.8378 4.80451 -0.00167029 -0.173058 -0.071951
466 1 1 21.6404 57.7354 4.09675 -0.0235619 0.0869983 0.0987389
467 1 1 22.8014 57.8208 2.42658 -0.134188 -0.0285341 0.189577
468 1 1 22.3134 57.753 3.28422 -0.0956821 -0.0170183 -0.160136
469 1 3 24.6562 60.9734 59.165 0.00466235 -0.0828453 0.0468227
470 1 1 24.5064 60.1273 59.793 0.0643248 -0.174082 0.13333
471 1 1 22.3481 6.15605 0.392728 -0.0877116 -0.0233994 0.130428
472 1 1 21.7865 5.9717 1.22796 -0.0681592 -0.00465629 -0.023066
473 1 3 21.2375 5.80814 2.12703 -0.00167594 -0.0102043 -0.0104969
474 1 1 20.1143 58.1713 5.35882 -0.0990594 -0.048046 -0.0614292
475 1 1 20.1711 58.9903 5.8105 0.0984624 -0.0522846 0.019277
476 1 1 20.1021 59.9729 6.17724 -0.00435638 -0.0900112 0.0329461
477 1 3 20.8841 5.52336 3.01592 0.0534734 0.152644 -0.141038
478 1 1 20.122 60.9207 6.34083 -0.0777687 0.0726678 -0.0524587
479 1 1 20.1125 61.8961 6.41275 -0.0803616 0.141321 -0.0264747
480 1 1 20.1619 0.863045 6.28332 -0.0954723 0.0264396 -0.212959