ITEM: TIMESTEP
100000000
ITEM: NUMBER OF ATOMS
51222
ITEM: BOX BOUNDS pp pp pp
0 62
0 62
0 62
ITEM: ATOMS id mol type x y z vx vy vz 
1 1 1 51.9679 60.5297 10.7623 -0.00201001 -0.185182 -0.168348 
2 1 1 51.5554 59.8547 10.3026 -0.00234155 0.0733592 -0.0484375 
3 1 1 51.9299 60.4782 9.74301 0.0809625 -0.112507 -0.0722236 
4 1 1 51.4953 59.7705 9.36604 0.0787171 -0.0972774 -0.21088 
5 1 1 52.216 61.2755 10.275 -0.184583 -0.0359017 0.113307 
6 1 1 51.8323 60.5685 8.80062 0.153016 -0.00374336 -0.0431499 
7 1 1 51.35 59.8913 8.30975 0.15557 0.0221561 0.0320614 
8 1 1 51.5379 60.1235 11.3551 -0.0344819 -0.00848401 -0.00344461 
9 1 1 50.9785 59.4434 10.9172 0.0899573 0.147661 -0.133023 
10 1 1 51.0205 59.2126 9.95125 -0.0167653 -0.0164225 0.26111 
11 1 1 50.9889 59.225 8.98496 0.0506048 -0.0976141 -0.0393769 
12 1 1 50.7082 59.1682 8.15841 -0.154006 -0.0280588 -0.0370882 
13 1 1 51.9142 60.9921 11.5796 -0.00941825 -0.110492 -0.0944841 
14 1 1 52.1873 61.3254 10.9875 -0.0711955 -0.0469212 0.105051 
15 1 1 52.2938 0.0517045 10.8098 0.00318813 0.0691429 0.0612526 
16 1 1 52.1876 61.3074 9.28305 0.0212575 0.0364248 0.013436 
17 1 1 52.365 0.146634 9.83605 -0.0983507 0.0072654 -0.110866 
18 1 1 50.8299 59.5982 7.58779 0.0334719 -0.0887055 -0.0641957 
19 1 1 51.2003 60.2812 7.42204 -0.0236803 -0.162819 -0.112857 
20 1 1 51.6636 60.794 7.88784 -0.187226 -0.0237685 -0.103952 
21 1 1 52.0015 61.4973 8.30919 -0.0937951 0.106163 -0.0916453 
22 1 1 51.6512 61.1614 12.2226 -0.00683711 0.148563 -0.0904414 
23 1 1 51.2844 60.2804 12.1103 -0.0836681 0.0440136 -0.0414023 
24 1 1 50.8125 59.4733 11.7369 0.000317385 -0.0173929 0.0105873 
25 1 1 50.3696 58.9379 11.3855 -0.100179 0.0103876 0.0696133 
26 1 1 50.3709 58.6396 10.481 -0.105393 -0.101662 0.00241911 
27 1 1 50.3767 58.5259 9.61896 0.0778806 0.061368 -0.0817123 
28 1 1 50.1764 59.087 7.38985 -0.189467 -0.173517 -0.0213771 
29 1 1 50.1995 58.5685 8.76273 0.062314 -0.0554371 -0.112369 
30 1 1 49.8827 58.5311 7.93975 -0.269506 0.00836363 -0.128443 
31 1 1 52.0525 61.8656 11.769 -0.0482836 -0.17917 -0.141286 
32 1 1 52.1912 0.69442 11.1821 -0.16439 -0.12551 0.21306 
33 1 1 52.2778 0.91166 10.3393 -0.0052946 -0.0295754 0.0199243 
34 1 1 52.2227 0.219835 8.81241 0.0267875 -0.0542588 -0.0796134 
35 1 1 52.2275 0.989924 9.44753 -0.0284925 -0.140412 -0.191017 
36 1 1 50.5212 59.779 6.99709 -0.0474064 0.157023 0.0482141 
37 1 1 50.8027 60.5686 6.71114 0.152052 0.0275481 0.174943 
38 1 1 49.8183 59.4277 6.6164 0.133979 -0.0243684 -0.0596717 
39 1 1 51.3623 61.1401 7.06175 -0.0110885 -0.00515843 -0.208815 
40 1 1 51.7094 61.6962 7.34263 0.286042 0.0254625 0.110051 
41 1 1 51.9775 0.458049 7.81115 -0.00979877 -0.0641853 -0.0182834 
42 1 1 51.6145 61.7853 12.6139 0.0404534 0.132939 0.0137941 
43 1 1 51.0216 61.2363 13.0303 0.0129091 0.017459 0.0652186 
44 1 1 50.8639 60.4735 12.7504 -0.0709407 0.0606082 0.0464769 
45 1 1 50.6614 59.804 12.4058 -0.0391326 0.0230462 0.036238 
46 1 1 50.1342 59.2954 12.3365 0.0157271 -0.00503523 0.0806994 
47 1 1 49.567 58.6934 12.0656 -0.113809 -0.156093 -0.0685984 
48 1 1 49.5846 58.3983 11.1577 -0.00987407 0.0377927 0.031145 
49 1 1 49.5864 58.1049 10.1486 0.109922 0.0945029 -0.0238697 
50 1 1 49.5274 58.0705 9.27594 -0.154967 -0.165863 0.124444 
51 1 1 49.4659 58.7151 7.1118 0.00319632 0.15905 0.00100589 
52 1 1 49.348 58.1257 8.39444 0.134882 0.0396682 -0.225653 
53 1 1 49.2492 58.2955 7.68778 0.137718 0.00777377 0.0224276 
54 1 1 51.7098 0.518262 12.4639 0.0997986 0.15117 -0.148875 
55 1 1 51.1671 0.486997 13.2583 -0.118652 -0.003192 -0.24715 
56 1 1 51.9662 0.850734 11.8353 0.0159744 0.0617565 0.0246451 
57 1 1 52.0357 1.40951 11.1367 -0.189085 0.0759418 -0.294437 
58 1 1 51.5467 1.48386 12.314 -0.152663 -0.0757231 0.0634527 
59 1 1 52.0722 1.74225 10.1595 -0.0038595 0.139988 -0.0575628 
60 1 1 52.0598 1.17471 8.51713 0.0414906 0.118758 -0.152515 
61 1 1 52.011 1.90177 9.26108 0.173639 -0.0136536 -0.0497764 
62 1 1 50.8865 61.2027 6.47146 -0.0590941 0.189866 0.129118 
63 1 1 50.0966 60.1648 6.35818 -0.100581 0.113667 0.0673134 
64 1 1 50.2919 60.9123 6.03407 0.155954 -0.0153388 0.257455 
65 1 1 48.9503 59.0139 6.50557 -0.112579 0.102206 0.118618 
66 1 1 49.2141 59.742 6.02284 0.0752171 -0.0523919 0.00741079 
67 1 1 51.2227 61.8364 6.61196 -0.162932 -0.0613421 -0.0400207 
68 1 1 51.5782 0.664668 6.98336 0.0961556 -0.219741 0.060656 
69 1 1 51.7645 1.41517 7.62162 -0.0786173 -0.00242865 0.0671145 
70 1 1 50.9561 61.7094 13.3282 -0.152755 0.0645485 -0.0164691 
71 1 1 50.4551 61.0245 13.4314 0.211405 0.0905074 -0.22085 
72 1 1 50.0939 59.9294 13.2215 -0.00816215 0.00500916 0.106218 
73 1 1 49.3828 59.2068 12.9399 0.165826 0.0170115 0.059616 
74 1 1 48.8908 58.646 12.5291 0.0816041 0.125778 0.0582044 
75 1 1 48.8307 58.2224 11.7317 0.047201 0.00112741 0.0482164 
76 1 1 48.8578 57.9406 10.6814 0.0232923 0.0408617 0.198968 
77 1 1 48.7364 57.822 9.71093 -0.19015 0.0731163 -0.152389 
78 1 1 48.5963 57.7672 8.95053 -0.142471 0.0900726 0.121123 
79 1 1 48.6813 58.4151 7.16963 -0.0694616 -0.0236255 -0.0418346 
80 1 1 48.4762 57.9489 7.99942 -0.0460702 -0.0338545 -0.103536 
81 1 1 48.1005 58.6682 6.54647 0.10063 0.0699329 0.167453 
82 1 1 50.3525 0.499296 13.8205 -0.0310778 0.168755 0.0393919 
83 1 1 51.1782 1.31016 13.0213 -0.0180264 -0.132355 -0.00709318 
84 1 1 50.747 1.09347 13.5267 0.00857299 0.0163478 0.134764 
85 1 1 51.6407 1.8896 11.8165 0.157268 -0.0147854 -0.0812233 
86 1 1 51.7796 2.23401 11.0153 0.0701614 -0.181858 -0.016114 
87 1 1 51.1733 2.14993 12.4975 -0.016446 0.0531197 -0.100074 
88 1 1 51.8178 2.60088 10.0193 0.00302979 0.170206 -0.0633373 
89 1 1 51.7478 2.19845 8.29917 -0.0917825 -0.0968764 -0.0475238 
90 1 1 51.6813 2.84342 9.14888 -0.00490634 -0.0604891 0.0618875 
91 1 1 50.6149 61.9229 5.9274 0.110708 0.0971128 0.154383 
92 1 1 49.5528 60.5658 5.72304 0.133365 0.120578 0.0197478 
93 1 1 49.7896 61.4718 5.5214 -0.00425423 -0.10411 0.00610224 
94 1 1 48.3376 59.3955 5.91585 0.0942346 -0.0427109 0.00579841 
95 1 1 48.7001 60.2821 5.48666 0.10136 0.0730314 0.0426481 
96 1 1 50.9622 0.748444 6.2659 0.0238557 0.00487216 0.130943 
97 1 1 51.2947 1.53198 6.82022 -0.0264918 0.000754886 0.125168 
98 1 1 51.393 2.42619 7.53165 -0.0293677 0.0503229 -0.137086 
99 1 1 50.1397 61.6718 13.8517 -0.0701129 -0.0109976 -0.0698163 
100 1 1 49.6203 60.7609 13.9572 0.0392553 -0.0235368 0.126932 
101 1 1 49.064 59.9548 13.7374 -0.0636811 -0.111567 -0.0835061 
102 1 1 48.4368 59.2409 13.3308 -0.133815 -0.148369 -0.035857 
103 1 1 48.2132 58.2615 12.1681 -0.113835 -0.108157 -0.0478842 
104 1 1 48.0318 58.6096 12.7799 -0.0460486 0.0459837 0.101924 
105 1 1 47.9948 57.8572 11.2813 0.0157581 0.0173245 0.0125575 
106 1 1 47.9606 57.6565 10.205 -0.070652 0.120802 -0.0352585 
107 1 1 47.8597 57.5395 9.24658 0.0433982 -0.00391868 0.00530135 
108 1 1 47.8534 57.6605 8.62679 0.105197 0.0453041 0.220113 
109 1 1 47.5777 59.1211 5.94016 -0.200404 -0.0334705 -0.0336983 
110 1 1 47.8289 58.1674 7.26156 -0.112443 0.0157648 -0.181409 
111 1 1 47.4222 57.7592 8.01202 0.0648398 0.173335 -0.00885164 
112 1 1 47.147 58.5003 6.60956 -0.0143349 -0.0862822 -0.175763 
113 1 1 50.1092 1.37205 13.9138 0.0730484 0.0091413 -0.155678 
114 1 1 49.6966 0.417548 14.2344 -0.0543736 0.0777855 0.0382793 
115 1 1 50.4602 2.08833 13.3306 -0.0772289 0.0254144 -0.0296339 
116 1 1 49.6561 2.16016 13.8579 0.0701688 0.177237 -0.0952617 
117 1 1 51.2518 2.70048 11.7619 0.0475471 0.0427425 -0.0371097 
118 1 1 51.3847 3.11276 10.8493 -0.0309706 0.00297678 -0.0874382 
119 1 1 50.6309 2.91533 12.5054 0.0939526 0.0608062 0.0699685 
120 1 1 51.3266 3.37337 9.83068 0.17698 0.0427773 -0.0254514 
121 1 1 51.3919 3.11036 8.31566 -0.0887779 -0.00721415 -0.0852587 
122 1 1 51.1032 3.63716 9.16991 0.0771374 0.0364886 0.00291213 
123 1 1 50.2418 0.981516 5.60463 0.0467165 -0.0415551 0.0779961 
124 1 1 49.8951 0.219649 5.44571 -0.150623 0.21613 -0.0243853 
125 1 1 49.0288 61.1122 5.22601 0.00518616 0.193647 0.00442235 
126 1 1 49.2925 0.0221776 5.16041 -0.245656 -0.0791287 -0.0700714 
127 1 1 47.8974 59.8918 5.38932 -0.133873 -0.00219373 -0.0118469 
128 1 1 48.0977 60.7491 4.99828 0.0628798 0.195766 0.0429891 
129 1 1 47.0813 59.6699 5.3312 0.0936214 -0.0913508 0.00783676 
130 1 1 50.9363 3.34315 7.56629 -0.143201 -0.00619669 0.0570696 
131 1 1 50.638 1.63607 6.10874 -0.0920823 -0.0728502 -0.0381766 
132 1 1 50.7733 2.71967 6.7993 -0.190352 -0.0563287 0.129088 
133 1 1 49.1828 61.5733 14.3944 -0.0380683 0.05911 0.0488535 
134 1 1 48.7652 60.7049 14.251 -0.0119227 -0.042516 -0.0208682 
135 1 1 47.5488 58.9591 13.2321 -0.0536301 0.194466 -0.0850185 
136 1 1 48.2067 59.9806 14.0235 0.0102028 0.124534 0.0129728 
137 1 1 47.5861 59.4637 13.7683 -0.0022518 0.0512546 0.0723712 
138 1 1 47.4508 58.2088 12.1666 -0.10534 -0.0479738 0.0425562 
139 1 1 47.1764 58.5931 12.8766 0.164104 -0.094991 -0.00903161 
140 1 1 46.9556 57.8368 11.4139 0.133255 -0.131706 -0.0217971 
141 1 1 47.1245 57.5672 10.5603 0.0618348 0.0943149 0.00362823 
142 1 1 47.3249 57.4879 9.76268 -0.102167 0.13207 0.0675486 
143 1 1 46.9658 57.5602 8.87916 0.147508 -0.139545 0.116007 
144 1 1 46.6873 58.9565 5.93701 -0.0495772 0.0826553 -0.0176796 
145 1 1 46.9268 58.0461 7.32922 -0.047977 -0.00519846 0.00224861 
146 1 1 46.7165 57.8246 7.95297 -0.142507 0.019676 0.0548527 
147 1 1 46.3138 58.4111 6.52064 -0.0522982 -0.0896178 -0.153606 
148 1 1 49.3525 1.32049 14.3006 0.0853372 -0.0645702 0.0382351 
149 1 1 48.817 0.487161 14.5815 0.0101218 -0.0771945 0.140326 
150 1 1 49.8756 3.0184 13.1655 0.0517318 -0.0635259 -0.211392 
151 1 1 48.8411 2.08235 14.2431 0.0657042 0.158677 -0.017047 
152 1 1 49.0832 2.99041 13.6819 0.0105745 0.120304 -0.0503417 
153 1 1 50.8162 3.53354 11.6418 0.114382 0.0227125 0.122431 
154 1 1 50.877 3.83678 10.6076 -0.0384754 0.128806 0.092684 
155 1 1 50.1673 3.65925 12.3297 -0.113277 -0.0570605 -0.192184 
156 1 1 50.6583 4.19618 9.63468 0.019879 0.0332953 0.00680503 
157 1 1 50.7414 3.86879 8.30275 -0.0761342 -0.022128 0.229364 
158 1 1 50.6067 4.21194 9.00704 0.167853 -0.128474 0.0328031 
159 1 1 50.0177 1.63437 5.59475 -0.071753 -3.31421e-05 0.163701 
160 1 1 49.3497 1.00149 5.19696 -0.145712 0.0167352 -0.0970202 
161 1 1 48.5938 0.52432 4.79585 -0.197215 0.171459 -0.00437521 
162 1 1 48.3605 61.7275 4.74017 0.0788527 0.0827686 -0.152287 
163 1 1 47.3151 60.4178 4.87204 -0.0574218 -0.0475491 -0.099349 
164 1 1 47.5634 61.0884 4.68397 0.214699 0.0842507 -0.00799225 
165 1 1 46.1764 59.4204 5.2777 -0.0339505 0.0369594 -0.1679 
166 1 1 46.5931 59.9939 4.91448 0.124356 0.0111245 0.137018 
167 1 1 50.4153 3.49133 7.0421 -0.0594155 0.179832 -0.114397 
168 1 1 50.3647 3.96312 7.61915 -0.038278 0.00253237 0.10486 
169 1 1 50.0409 2.37512 5.90337 0.0952838 -0.0857063 -0.132874 
170 1 1 49.9402 3.17611 6.38683 -0.111693 -0.0744729 -0.0583067 
171 1 1 48.2078 61.582 14.6258 -0.175446 0.0730477 0.139291 
172 1 1 47.7633 60.8349 14.4642 -0.0601912 0.0607175 0.0275566 
173 1 1 46.8683 59.1136 13.3877 -0.0323739 -0.103156 0.0223787 
174 1 1 47.2361 60.2751 14.2233 0.122268 0.0586953 -0.028611 
175 1 1 46.8913 59.7159 13.8532 -0.0538909 0.115915 0.11464 
176 1 1 46.322 58.8648 12.9378 0.0010071 0.0566186 -0.0485851 
177 1 1 46.6414 58.2617 12.2167 0.121063 -0.0046885 0.0189217 
178 1 1 46.034 58.0712 11.5156 0.0255541 -0.100425 -0.0385531 
179 1 1 46.2806 57.719 10.7164 0.0386485 -0.0288907 0.127054 
180 1 1 46.5925 57.5265 9.85106 0.097775 -0.015752 0.101706 
181 1 1 46.0748 57.6203 9.21299 -0.0600371 -0.0339667 -0.0860457 
182 1 1 46.1162 57.7503 8.50427 0.211496 0.0866993 -0.154611 
183 1 1 45.6687 58.817 5.78927 -0.0675193 0.00498241 0.0278078 
184 1 1 45.3442 59.2733 5.11689 -0.0731468 0.168781 0.0321051 
185 1 1 45.9798 58.0527 7.44638 0.199716 0.0337683 -0.0606295 
186 1 1 45.5334 58.3043 6.58516 0.127709 -0.109647 0.123584 
187 1 1 48.4392 1.33398 14.5738 -0.166296 0.139555 -0.007294 
188 1 1 47.8656 0.470079 14.7789 -0.0874059 -0.0938627 0.310002 
189 1 1 49.513 3.67342 12.9516 0.0326868 0.0140175 0.0632053 
190 1 1 48.7164 3.79541 13.2113 0.0117948 0.0783008 -0.0377265 
191 1 1 48.1132 1.98482 14.4335 0.112951 0.047114 -0.0312803 
192 1 1 48.2525 2.61027 14.0922 -0.198343 -0.0367292 -0.0493218 
193 1 1 48.2684 3.33354 13.6337 -0.093755 -0.1594 0.0453914 
194 1 1 50.1955 4.2134 11.426 -0.035384 0.105292 -0.00331925 
195 1 1 50.1216 4.46558 10.4736 0.0558095 -0.0359455 0.0331943 
196 1 1 49.5594 4.35535 12.0596 -0.0906176 0.0432058 -0.0288148 
197 1 1 49.8932 4.70425 9.33716 0.0917388 -0.063189 0.0936941 
198 1 1 50.0866 4.49585 8.38439 -0.0572955 0.0565732 0.00542699 
199 1 1 49.435 1.98472 5.3363 0.103551 -0.0668414 -0.033371 
200 1 1 48.7643 1.89762 5.1103 0.00684508 -0.0362868 0.172187 
201 1 1 48.403 1.24769 4.78989 -0.106569 0.036949 -0.0461427 
202 1 1 47.9064 0.68679 4.53262 0.102268 0.0887595 0.0490924 
203 1 1 47.2869 61.9119 4.324 0.117683 0.000641872 -0.0205763 
204 1 1 46.6295 60.9122 4.3803 -0.0507113 -0.101441 0.129555 
205 1 1 45.6847 60.0594 4.55939 0.0749053 -0.0352887 -0.00529263 
206 1 1 49.7825 3.92 6.93113 -0.031435 -0.190978 -0.0856109 
207 1 1 49.5776 4.50987 7.62683 0.00922455 0.0359505 -0.0581346 
208 1 1 49.3169 2.90615 5.76713 0.079541 -0.0303909 -0.0785357 
209 1 1 49.181 3.70472 6.30482 0.106374 0.0276742 -0.0167574 
210 1 1 47.2468 61.6413 14.685 0.111909 -0.0713029 -0.111366 
211 1 1 46.7666 61.0337 14.4328 0.0640939 0.0763604 0.0999641 
212 1 1 46.2129 59.5496 13.495 0.0993273 0.11448 -0.231161 
213 1 1 46.201 60.4079 14.064 0.178463 -0.0687071 0.0192362 
214 1 1 45.5393 59.2746 12.9766 -0.125412 -0.0340391 0.000305516 
215 1 1 45.7907 58.5719 12.293 0.111672 0.281401 -0.0884046 
216 1 1 44.7538 59.4643 4.70902 -3.06286e-05 -0.0847338 0.0541402 
217 1 1 44.6901 58.8061 5.48058 -0.0981453 -0.0467564 0.030161 
218 1 1 45.154 58.5287 11.6948 -0.153382 -0.0566614 -0.0310973 
219 1 1 45.3546 58.0486 10.9247 0.0534176 0.0338373 -0.119357 
220 1 1 45.6787 57.7016 9.96501 0.0346529 0.0158756 0.0282881 
221 1 1 45.32 57.6823 9.00759 0.0906069 -0.0757827 0.125579 
222 1 1 45.2262 57.7899 8.11227 0.0659092 -0.0455509 -0.0881886 
223 1 1 44.9169 58.41 6.29647 -0.131755 0.0414225 0.0300712 
224 1 1 44.9182 58.0465 7.14537 0.0353609 0.192748 -0.0921786 
225 1 1 46.8724 0.402574 14.759 -0.0152974 0.00714342 -0.118367 
226 1 1 47.3284 1.4027 14.6839 -0.181341 0.0845978 -0.0730543 
227 1 1 48.8196 4.45972 12.5089 -0.0375847 0.0473912 -0.293557 
228 1 1 48.1711 4.33396 12.9375 -0.109161 0.0287469 0.0315448 
229 1 1 47.8865 3.83659 13.3713 -0.0213441 -0.0260372 0.100758 
230 1 1 47.4111 2.43071 14.2818 0.104206 0.096342 -0.0404789 
231 1 1 47.6021 3.19683 13.846 -0.205448 -0.0502192 -0.083103 
232 1 1 49.4504 4.76495 11.1749 0.0156413 0.112556 -0.00564503 
233 1 1 49.2943 4.98026 10.3744 0.187775 0.008981 0.0942243 
234 1 1 48.797 4.931 11.6953 -0.0801817 -0.0055286 -0.0206076 
235 1 1 48.9754 5.25262 9.51165 -0.0524695 -0.0857142 0.113901 
236 1 1 49.3029 4.96443 8.50047 -0.021624 0.049311 -0.0293159 
237 1 1 48.7196 2.59903 5.312 0.0389835 0.15507 0.0455361 
238 1 1 47.9024 2.20442 4.91298 0.0448496 0.0957355 -0.00253665 
239 1 1 47.4427 1.4333 4.40252 -0.201285 -0.0990045 0.0753542 
240 1 1 46.8961 0.61583 4.19119 0.132368 -0.168293 -0.0384547 
241 1 1 46.3248 61.7614 4.0861 -0.0572229 -0.0246141 -0.02553 
242 1 1 45.6227 60.9533 4.02071 0.00823778 -0.0528 -0.0436838 
243 1 1 44.7891 60.1795 4.14668 -0.0858855 -0.0231827 -0.102789 
244 1 1 49.0101 4.40752 7.05669 -0.092365 0.0346774 0.215009 
245 1 1 48.743 4.97542 7.84087 -0.139117 -0.0182547 -0.147305 
246 1 1 48.4585 3.43376 5.79161 -0.0598409 0.0506538 -0.0878037 
247 1 1 48.4223 4.25436 6.45352 -0.222731 0.040887 0.0412782 
248 1 1 46.2304 61.7046 14.5129 -0.0620261 -0.1369 -0.0269614 
249 1 1 45.8502 61.2101 14.2764 0.107292 -0.0266118 0.0531281 
250 1 1 45.4706 59.9944 13.5662 -0.0852271 0.0447792 -0.195616 
251 1 1 45.3177 60.852 13.9784 0.076419 0.0470414 -0.0449052 
252 1 1 44.69 59.8138 13.013 -0.0937039 -0.00794358 -0.0076276 
253 1 1 44.8609 59.0771 12.3616 -0.0294047 -0.0492267 -0.135968 
254 1 1 43.8853 59.627 4.37474 -0.0387053 0.0483311 -0.0624132 
255 1 1 43.9462 58.9719 5.1171 0.0658339 0.0162011 0.00117022 
256 1 1 43.9225 58.5312 5.89206 -0.106662 0.0532776 0.00119389 
257 1 1 44.3142 58.8517 11.7181 -0.00598423 -0.0232576 -0.0620123 
258 1 1 44.5363 58.3473 11.0505 0.145726 -0.0334838 -0.0778831 
259 1 1 44.7798 58.0131 10.4402 -0.199874 0.0500555 -0.104879 
260 1 1 44.5536 57.8947 9.60073 -0.294533 -0.0854604 0.074306 
261 1 1 44.4054 57.8068 8.70235 -0.213549 -0.16968 0.0552251 
262 1 1 44.2717 57.9145 7.70898 0.0423959 0.00298569 0.0356353 
263 1 1 44.078 58.1597 6.73616 -0.0372811 -0.0228109 0.113888 
264 1 1 46.0888 0.430764 14.5498 0.0998923 -0.0995795 0.0998539 
265 1 1 46.273 1.15316 14.5296 -0.0730679 0.218848 0.0301741 
266 1 1 46.5708 2.10895 14.3344 -0.0919584 -0.0673913 0.115897 
267 1 1 47.9067 4.90826 12.1809 -0.0621999 0.00505811 0.0328913 
268 1 1 47.4701 4.34897 12.8973 -0.0522583 0.043616 -0.0830554 
269 1 1 47.059 3.66577 13.4121 0.0809456 -0.134049 -0.142127 
270 1 1 46.7491 2.96142 13.9617 -0.103328 -0.0230742 -0.0598703 
271 1 1 48.5855 5.20393 10.9007 0.133358 0.183997 -0.0221287 
272 1 1 48.5604 5.31311 10.2469 0.119361 -0.0896541 -0.0207147 
273 1 1 48.0932 5.21981 11.3731 -0.0368197 -0.0244638 0.0434511 
274 1 1 48.1175 5.53562 9.68423 0.100687 -0.0128866 0.0734575 
275 1 1 48.4826 5.3239 8.81182 -0.169334 0.082421 0.0497023 
276 1 1 47.8157 3.14608 5.30345 -0.0120012 0.215899 -0.118725 
277 1 1 47.1965 3.00232 4.89686 -0.054513 -0.233164 -0.00732804 
278 1 1 46.8929 2.28061 4.46852 0.0107643 -0.147906 -0.00672027 
279 1 1 46.4868 1.55977 4.12543 0.0623983 0.05287 0.221934 
280 1 1 46.0281 0.669344 3.88222 -0.191077 0.283491 0.00855681 
281 1 1 45.3989 61.8796 3.76871 -0.0379827 -0.0986112 -0.0238465 
282 1 1 44.6793 61.0628 3.72539 -0.20333 0.0634505 0.166213 
283 1 1 43.8286 60.3541 3.83346 -0.0385054 -0.0316386 -0.0582305 
284 1 1 48.1195 4.8605 7.11379 -0.0439671 0.0782044 -0.0848649 
285 1 1 47.9071 5.25361 7.95428 0.187189 -0.114085 -0.0427482 
286 1 1 47.7521 3.95999 5.84656 -0.137646 0.114805 -0.112536 
287 1 1 47.5733 4.63297 6.45136 -0.11249 -0.0229342 0.0688221 
288 1 1 45.2485 61.8568 14.239 0.026578 0.0572823 0.0903172 
289 1 1 44.6598 60.6238 13.5269 0.000879992 0.0770577 0.142188 
290 1 1 44.7043 61.246 13.8042 0.153027 -0.0161947 0.156787 
291 1 1 42.9447 59.7857 4.05692 -0.16104 -0.09807 -0.0525332 
292 1 1 43.9163 60.288 13.0636 -0.097094 -0.205241 0.197947 
293 1 1 44.0077 59.534 12.4448 -0.0175131 -0.0744242 -0.0441226 
294 1 1 43.0485 59.1028 4.75488 -0.0252452 -0.183504 0.0113929 
295 1 1 43.0441 58.6066 5.57565 0.037893 -0.026763 -0.00185169 
296 1 1 43.1945 58.3033 6.47736 -0.0897669 -0.0693043 0.173901 
297 1 1 43.4692 59.1812 11.8144 0.0285458 0.181664 0.102581 
298 1 1 43.8623 58.6702 11.2868 -0.121089 0.0669856 0.0899698 
299 1 1 43.8165 58.2318 10.3755 0.020132 0.0348626 -0.105574 
300 1 1 43.569 58.03 9.27408 0.0593791 -0.0298229 -0.0630619 
301 1 1 43.4937 57.9625 8.35182 -0.0642514 0.0586801 -0.0317692 
302 1 1 43.3564 58.0877 7.41514 -0.0356642 -0.0653388 -0.084366 
303 1 1 45.9349 2.68259 13.9122 0.00889061 0.121175 -0.14561 
304 1 1 45.5587 0.78153 14.3107 -0.0506925 0.151827 -0.177881 
305 1 1 45.7144 1.72572 14.1501 0.107691 0.012774 0.10297 
306 1 1 47.4185 5.19065 11.4435 -0.0336159 -0.133231 0.0603063 
307 1 1 46.9532 4.81134 12.2047 0.230966 -0.0251594 0.0340862 
308 1 1 46.6145 4.1686 12.817 0.134928 -0.0391263 -0.0850606 
309 1 1 46.2476 3.48933 13.4646 0.0386463 0.105308 0.0856784 
310 1 1 47.6925 5.4491 10.5838 0.13527 -0.0352511 0.025832 
311 1 1 47.3295 5.6302 9.73141 -0.0944643 0.105255 0.0792403 
312 1 1 47.4576 5.57831 8.82845 -0.149863 -0.108149 0.0853553 
313 1 1 47.0462 3.74114 5.27685 0.119777 -0.0908519 -0.0422223 
314 1 1 46.5398 3.13579 4.70996 -0.128822 -0.0516294 0.0016136 
315 1 1 46.0838 2.38449 4.20132 -0.0420582 0.072276 0.119691 
316 1 1 45.5971 1.63066 3.84019 -0.168999 -0.0867312 0.0926367 
317 1 1 45.0433 0.739355 3.5208 -0.0831839 -0.000446645 0.0460735 
318 1 1 44.4501 0.0215862 3.41532 0.0335545 0.0124562 -0.0949685 
319 1 1 43.7241 61.1907 3.38924 -0.0139953 0.17576 0.0574184 
320 1 1 42.8837 60.5305 3.54937 0.045178 0.0239468 0.0254975 
321 1 1 47.3663 5.17765 7.21666 0.153656 -0.0288892 0.0907194 
322 1 1 47.1522 5.44101 7.84182 -0.0645519 -0.0912207 -0.219205 
323 1 1 46.9278 4.52515 5.8961 0.120915 0.0254479 -0.0851733 
324 1 1 46.9821 4.96458 6.58067 0.0468732 0.0305066 -0.00273413 
325 1 1 44.6726 0.614951 14.0346 0.0618185 0.0431566 0.155801 
326 1 1 44.3846 0.0367106 13.8618 0.0856961 -0.154054 0.0216044 
327 1 1 43.8917 61.2827 13.4476 -0.173457 -0.0221475 0.0643272 
328 1 1 43.231 60.6742 12.9639 0.128672 0.0515726 -0.0231659 
329 1 1 42.0482 59.9754 3.78949 0.0387061 -0.0126388 0.0611188 
330 1 1 42.1037 59.363 4.40671 -0.0413581 -0.0378705 -0.0467135 
331 1 1 43.1742 59.9962 12.449 0.0462578 0.160937 -0.0318774 
332 1 1 42.0801 58.822 5.26257 -0.11879 0.0409551 0.186695 
333 1 1 42.2608 58.4616 6.14705 -0.0796263 0.0379899 0.208331 
334 1 1 42.4158 58.304 7.12195 0.0340319 0.134696 0.0199941 
335 1 1 42.7856 59.4281 11.7609 -0.138527 0.115269 -0.056065 
336 1 1 42.9764 58.7712 11.0588 0.0252119 -0.0083057 -0.0133181 
337 1 1 42.9163 58.3701 9.99082 0.136094 -0.13395 0.18836 
338 1 1 42.6692 58.1462 9.0167 -0.0720511 0.135538 0.229994 
339 1 1 42.5946 58.1443 8.01475 0.116385 0.00303566 -0.104351 
340 1 1 46.8777 5.4184 10.921 -0.0723634 -0.0761827 0.0407914 
341 1 1 45.3936 3.19943 13.3856 -0.06563 -0.0236709 -0.230678 
342 1 1 45.0692 2.40102 13.6827 -0.207469 0.111875 -0.0347216 
343 1 1 44.7839 1.51345 13.8875 0.0837327 0.04061 0.0111091 
344 1 1 46.5147 5.11232 11.5247 0.221088 0.131226 0.0202483 
345 1 1 46.0168 4.59734 12.2382 0.0278747 0.074657 -0.0881235 
346 1 1 45.6589 3.88986 12.9017 0.0171654 0.0576411 0.0205149 
347 1 1 44.7756 3.64711 12.8507 0.139021 -0.140961 0.0690575 
348 1 1 46.797 5.65683 10.1408 -0.0994883 -0.0512652 0.0334768 
349 1 1 46.5894 5.75969 9.2738 -0.082955 0.255712 -0.0690958 
350 1 1 46.4455 5.72285 8.36825 0.0900113 -0.217434 -0.0057898 
351 1 1 46.3358 4.45611 5.46329 0.00523972 0.109273 0.132632 
352 1 1 46.0787 3.89924 4.97275 -0.0265856 0.113461 0.056901 
353 1 1 45.6905 3.27037 4.37783 0.0550328 -0.122087 0.080555 
354 1 1 45.2606 2.58111 3.87551 -0.15464 0.014508 0.11047 
355 1 1 44.7488 1.76502 3.45573 0.0508947 0.0180542 0.0594442 
356 1 1 44.1558 1.03196 3.18094 -0.0192423 0.0720647 -0.0532913 
357 1 1 43.5446 0.211931 3.09091 0.0241647 -0.132942 0.0558257 
358 1 1 42.8164 61.3184 3.03153 -0.130649 -0.0111069 0.216704 
359 1 1 41.9641 60.7815 3.16374 -0.108171 0.00303203 -0.207568 
360 1 1 46.39 5.52358 7.25553 0.152764 -0.130995 -0.0138302 
361 1 1 46.103 5.12909 6.29047 -0.0870664 -0.0861364 -0.138258 
362 1 1 44.0445 0.811833 13.8126 0.197803 -0.00886089 -0.0430385 
363 1 1 43.4927 0.14723 13.5656 -0.0795414 -0.046466 -0.0645601 
364 1 1 42.9395 61.4541 13.0794 -0.0518472 -0.293316 -0.126065 
365 1 1 42.5017 60.683 12.6181 -0.0973638 0.0954885 0.00759926 
366 1 1 41.1602 60.2125 3.45441 0.0656422 -0.101131 -0.141616 
367 1 1 41.1984 59.5722 4.1361 0.0802865 -0.0143111 -0.125747 
368 1 1 41.2249 59.0146 4.99077 0.0617683 0.0954195 0.146383 
369 1 1 42.2245 60.0284 12.0348 -0.0265391 0.137365 0.0226672 
370 1 1 41.2974 58.6344 5.88951 0.0231391 0.125051 -0.0388212 
371 1 1 41.5072 58.4312 6.83177 -0.170247 0.0178087 0.000334349 
372 1 1 41.5927 58.3468 7.76714 0.130072 0.0251274 -0.00122466 
373 1 1 42.1649 59.3606 11.3504 -0.229992 -0.168767 -0.116295 
374 1 1 42.1202 58.8042 10.5046 0.0172001 -0.14958 -0.0507357 
375 1 1 42.0019 58.4383 9.66001 -0.194406 -0.102619 0.106413 
376 1 1 41.7604 58.3156 8.70268 0.00200093 -0.056094 -0.00899876 
377 1 1 45.9835 5.4484 10.7647 -0.0291746 -0.0423963 0.0320516 
378 1 1 44.504 3.00341 13.1808 -0.182993 0.130638 0.0718036 
379 1 1 44.2969 2.36829 13.4916 0.131835 0.0492923 -0.0659992 
380 1 1 43.7355 1.72973 13.5482 0.233206 0.0957424 0.0182094 
381 1 1 45.5528 5.02567 11.6565 -0.0392007 0.124465 0.0118764 
382 1 1 45.1269 4.4647 12.2461 0.0870825 0.146875 0.0290291 
383 1 1 44.2934 4.14269 12.2675 0.138966 -0.0375587 0.0984095 
384 1 1 44.1253 3.47064 12.7873 -0.0492814 0.0242433 0.00389423 
385 1 1 45.8959 5.74664 9.72468 0.0598367 -0.118282 0.0511266 
386 1 1 45.7025 5.89747 8.8161 -0.0294659 -0.0331651 0.145031 
387 1 1 45.6381 5.89365 7.87983 0.0430298 -0.122371 0.0490703 
388 1 1 45.6841 4.69161 5.33566 0.135534 0.100314 0.012323 
389 1 1 45.2168 4.14179 4.57279 0.033296 0.0302594 0.0296587 
390 1 1 44.8469 3.44654 3.90519 -0.326444 -0.0355133 0.112567 
391 1 1 44.3827 2.68899 3.41651 0.273258 0.052345 0.0412428 
392 1 1 43.8574 1.89723 3.07895 -0.0510386 0.258386 -0.0645469 
393 1 1 43.2503 1.16176 2.83177 0.12774 0.0927043 0.018873 
394 1 1 42.65 0.303416 2.66988 0.0357297 0.0242 0.0222054 
395 1 1 41.8859 61.6056 2.62013 -0.134617 0.0419712 0.0860657 
396 1 1 41.0362 60.9434 2.83861 -0.0492004 0.207663 0.00826463 
397 1 1 45.4033 5.68476 6.89918 -0.0234094 -0.10674 0.0820571 
398 1 1 45.218 5.33694 5.88957 -0.0755705 -0.0222128 -0.0671851 
399 1 1 43.1775 1.06979 13.4503 0.0898774 -0.0174241 -0.0041188 
400 1 1 42.6334 0.297189 13.1368 0.0907564 -0.0293304 0.26187 
401 1 1 42.1326 61.5332 12.7039 0.0877903 0.0361163 0.13683 
402 1 1 40.2457 60.4115 3.12048 0.068488 0.0408387 -0.0279114 
403 1 1 41.691 60.6967 12.257 0.0629386 0.00326422 -0.032164 
404 1 1 40.1729 59.8147 3.83129 -0.155164 0.0275647 0.0904023 
405 1 1 40.3068 59.2467 4.5431 -0.034696 0.10695 -0.0937632 
406 1 1 40.3409 58.7914 5.44915 -0.0297007 0.0672042 -0.0311382 
407 1 1 41.4636 60.0042 11.6348 0.127323 0.0562162 0.0377735 
408 1 1 40.4976 58.5755 6.43205 -0.0821147 -0.0416431 -0.113566 
409 1 1 40.6533 58.5103 7.37103 0.0929737 -0.142873 -0.0672534 
410 1 1 40.8141 58.4761 8.37943 -0.0230788 -0.108754 0.0473594 
411 1 1 41.2929 59.3984 10.9391 -0.0902963 0.0231933 0.120661 
412 1 1 41.2266 58.9189 10.1461 0.103544 0.00616521 -0.0187573 
413 1 1 40.9997 58.6229 9.37273 0.0985028 0.0164658 0.0622639 
414 1 1 45.0703 5.2944 11.0425 0.20818 -0.110832 -0.0201234 
415 1 1 45.0868 5.6136 10.3102 -0.0218499 -0.162455 -0.0427673 
416 1 1 43.4519 2.70245 13.0224 0.107571 -0.207733 0.00340172 
417 1 1 42.7819 1.96382 13.0622 -0.0989098 -0.0231296 0.0793878 
418 1 1 44.5747 4.83738 11.5733 -0.0885896 -0.0836138 -0.165675 
419 1 1 43.7378 4.50266 11.8287 -0.00658412 -0.0305595 0.0106111 
420 1 1 43.3344 3.75993 12.3961 0.0444842 -0.121426 0.0557441 
421 1 1 44.9269 5.98871 9.40098 0.00469243 0.0848762 -0.0266512 
422 1 1 44.8848 6.10831 8.46883 0.00451215 0.177405 0.0178097 
423 1 1 44.8098 6.08122 7.50532 0.0144651 0.0193216 0.0687957 
424 1 1 44.8228 4.84563 5.03802 -0.100315 0.10086 0.0392546 
425 1 1 44.352 4.32203 4.17462 -0.0209479 -0.200875 -0.0114655 
426 1 1 43.9242 3.57875 3.53418 0.0811309 0.180195 -0.115863 
427 1 1 43.461 2.82583 3.05377 -0.124773 -0.0866711 0.08371 
428 1 1 42.9411 2.09411 2.69721 -0.0397477 -0.0630305 -0.165894 
429 1 1 40.1748 61.1077 2.47443 -0.0103504 -0.0105024 -0.075322 
430 1 1 42.4379 1.27554 2.41404 0.0942244 -0.212762 0.138727 
431 1 1 41.7546 0.511463 2.25006 -0.102547 -0.0504588 0.0762908 
432 1 1 40.9949 61.7661 2.30445 0.0514245 -0.0159478 -0.0893503 
433 1 1 44.6013 5.85947 6.4379 0.189433 0.104536 -0.102901 
434 1 1 44.2912 5.46259 5.50286 0.0950074 0.00046768 0.0782653 
435 1 1 42.3223 1.21588 12.999 0.122584 0.168492 0.0840845 
436 1 1 41.7873 0.395332 12.73 -0.0975945 0.117309 -0.0767997 
437 1 1 41.2652 61.5438 12.3781 -0.224256 0.161065 -0.01258 
438 1 1 39.3017 60.5736 2.7139 -0.115854 -0.104256 0.172906 
439 1 1 39.3047 59.9848 3.47574 0.0282225 0.103478 -0.00626324 
440 1 1 40.8359 60.7984 11.8488 -0.10062 0.0975884 0.021456 
441 1 1 39.361 59.499 4.28586 -0.0632625 0.135047 0.0271047 
442 1 1 39.4388 59.0144 5.09597 0.0777323 0.0723052 -0.051501 
443 1 1 39.609 58.7509 6.07681 -0.0812569 0.0334505 0.0723616 
444 1 1 40.5679 60.0314 11.3091 -0.0761143 -0.12217 -0.0319108 
445 1 1 39.7518 58.6359 7.07583 0.122203 -0.0359161 0.0907802 
446 1 1 39.9104 58.6695 8.02972 0.298172 -0.106885 0.00599203 
447 1 1 40.0071 58.8177 9.01041 0.0703693 -0.109368 0.00312538 
448 1 1 40.4173 59.4837 10.5905 -0.0505755 -0.0336177 0.1428 
449 1 1 40.1556 59.0956 9.79689 -0.0435956 0.1006 0.0676838 
450 1 1 44.2705 5.36443 10.8174 -0.0247114 0.0299972 -0.0818439 
451 1 1 44.1921 5.77015 9.96187 -0.141252 -0.000694994 0.0617354 
452 1 1 42.6242 2.94896 12.6243 0.0421684 0.171835 -0.104557 
453 1 1 42.0047 2.18398 12.7134 0.0392409 -0.0623233 -0.0702549 
454 1 1 43.5001 4.98033 11.1545 0.0171402 -0.0726672 -0.0758621 
455 1 1 42.9539 4.47528 11.7147 -0.0563098 0.00119797 0.186577 
456 1 1 42.3382 3.80444 12.0762 -0.105641 0.180969 0.0808103 
457 1 1 44.1223 6.17614 9.00268 -0.0769289 -0.064519 -0.170356 
458 1 1 44.0079 6.28056 8.0493 0.0987047 0.13604 -0.0240464 
459 1 1 43.9345 6.23883 7.07842 0.0833682 -0.0954829 0.0773077 
460 1 1 43.939 5.00666 4.63078 0.239204 0.0461969 0.0756993 
461 1 1 43.4689 4.46438 3.84126 -0.103158 0.00957509 -0.082906 
462 1 1 43.0097 3.70557 3.22966 0.142315 -0.0129706 -0.179669 
463 1 1 42.5474 2.96842 2.64904 -0.0790599 -0.139726 -0.00452648 
464 1 1 42.1069 2.24183 2.24568 -0.0259335 -0.197426 -0.109657 
465 1 1 39.2579 61.2534 2.04981 -0.0710262 0.00573617 0.0274202 
466 1 1 40.0699 61.8843 1.92165 0.105425 -0.142911 0.0844191 
467 1 1 41.5663 1.38768 2.02364 0.0769008 0.0461594 -0.0992755 
468 1 1 40.8688 0.654284 1.91966 0.158233 0.069899 -0.0849179 
469 1 1 43.6702 6.01302 6.06796 -0.158224 -0.120723 0.0474701 
470 1 1 43.3728 5.58872 5.10993 -0.0790455 0.0397646 -0.0312638 
471 1 1 41.4845 1.35446 12.5707 0.151571 0.104987 -0.0041167 
472 1 1 40.9053 0.555747 12.3212 0.00680008 0.0354327 0.0787136 
473 1 1 40.3613 61.7305 11.933 -0.175907 -0.076385 -0.146093 
474 1 1 38.379 60.8084 2.28279 -0.00695838 -0.0734154 -0.0186954 