ITEM: TIMESTEP
100000000
ITEM: NUMBER OF ATOMS
61833
ITEM: BOX BOUNDS pp pp pp
0 62
0 62
0 62
ITEM: ATOMS id mol type x y z vx vy vz 
1 1 1 21.9994 17.0398 18.8065 0.0965473 -0.0345045 0.0503469 
2 1 1 21.2993 16.909 19.1468 -0.2067 -0.113062 0.0111322 
3 1 1 21.8334 16.1345 18.9237 -0.255805 0.0480237 0.0300389 
4 1 1 20.9056 16.0208 19.1787 -0.181971 0.0248551 -0.04974 
5 1 1 22.6288 16.3923 18.4487 0.142446 -0.124217 -0.0921529 
6 1 1 21.5467 15.2841 18.7767 0.0882682 0.111621 0.0130694 
7 1 1 20.5535 15.0301 18.8858 -0.140758 0.162447 0.0169223 
8 1 1 21.5282 17.7596 18.8719 0.0121907 0.00186942 -0.0185391 
9 1 1 20.5781 17.7285 19.1286 -0.0936395 -0.0808498 -0.0612986 
10 1 1 20.3358 16.8069 19.2643 -0.0648608 -0.0455297 -0.0540938 
11 1 1 20.0702 15.931 19.2259 -0.0434792 0.0614428 0.032113 
12 1 1 19.6136 15.2091 19.0455 0.0191015 -0.100005 0.16327 
13 1 1 22.4123 17.7805 18.3939 0.0364545 0.0320757 0.0601069 
14 1 1 22.7008 17.1021 18.34 0.115071 0.0278122 0.117438 
15 1 1 23.2294 16.8379 17.8328 -0.0379859 -0.272886 -0.0144294 
16 1 1 22.4243 15.5157 18.4305 -0.0723791 0.158511 -0.0469182 
17 1 1 23.0883 15.8444 17.8483 0.0259679 0.0179796 -0.0818231 
18 1 1 19.8234 14.4698 18.7686 -0.0983855 -0.0239905 -0.155771 
19 1 1 20.4566 14.1537 18.4867 -0.0198084 0.0159197 0.00890074 
20 1 1 21.3337 14.4024 18.4168 -0.00104856 -0.250031 0.0527206 
21 1 1 22.1766 14.6734 18.2374 -0.0449683 -0.0782146 -0.0212673 
22 1 1 22.5837 18.4108 18.0747 0.0351817 0.0318028 -0.000587069 
23 1 1 21.6781 18.5161 18.5432 0.0322422 0.00640312 0.157065 
24 1 1 20.7497 18.5197 18.809 -0.106258 -0.0653005 0.06114 
25 1 1 19.9947 18.4921 18.9083 -0.183353 -0.0770871 -0.135546 
26 1 1 19.5894 17.6243 19.1933 0.146506 0.00222996 0.0320378 
27 1 1 19.3327 16.7405 19.2783 0.0521861 -0.0294326 0.0242954 
28 1 1 19.0731 14.4145 18.707 0.0499013 0.0800573 0.0592819 
29 1 1 18.9766 15.9189 19.2425 -0.0763228 0.0488438 -0.0320813 
30 1 1 18.6381 15.0354 18.9239 0.108854 0.00239873 -0.176516 
31 1 1 23.209 17.8134 17.8052 0.051214 0.0909 -0.0319972 
32 1 1 23.6566 17.0855 17.3529 0.0720415 -0.105926 0.0793693 
33 1 1 23.6302 16.1719 17.3343 0.0389926 -0.00581963 0.0218809 
34 1 1 22.9804 14.891 17.6742 -0.0619656 -0.170564 -0.00950485 
35 1 1 23.6138 15.3905 17.1694 0.0775406 -0.030419 0.0528707 
36 1 1 19.6255 13.8437 18.4026 0.0955681 -0.120064 0.0312447 
37 1 1 20.1734 13.3189 17.9776 -0.127944 0.203285 -0.158361 
38 1 1 18.823 13.7477 18.2363 -0.0252467 0.204339 0.0567347 
39 1 1 20.9884 13.5179 17.9614 -0.0864769 0.0995727 0.150064 
40 1 1 21.7422 13.7756 17.8442 -0.00465859 0.0982322 -0.174418 
41 1 1 22.5715 13.9827 17.4325 -0.0411784 -0.015009 -0.147881 
42 1 1 22.9992 18.7646 17.5472 -0.0404325 0.0677176 -0.043987 
43 1 1 22.3629 19.3451 17.6457 -0.0953331 0.0115708 0.0659273 
44 1 1 21.76 19.2362 18.0774 -0.122677 0.0821722 0.00344583 
45 1 1 21.1119 19.1213 18.4291 0.0466748 -0.0515263 -0.0424681 
46 1 1 20.3551 19.3391 18.4796 -0.0339553 -0.0406362 -0.0543333 
47 1 1 19.4883 19.2076 18.6115 -0.183888 -0.160907 -0.0535379 
48 1 1 19.0136 18.4033 18.9306 -0.174572 0.0654863 -0.0693721 
49 1 1 18.5926 17.3933 19.1019 0.0463984 0.0332255 -0.0440361 
50 1 1 18.2897 16.5594 19.0852 0.0992793 -0.0120438 0.260204 
51 1 1 18.2602 14.4076 18.4627 -0.0478888 -0.0985048 0.00426557 
52 1 1 18.0524 15.7022 18.9106 -0.1284 0.116724 0.135519 
53 1 1 17.9788 15.0162 18.6384 -0.0666239 0.0124281 -0.0252812 
54 1 1 23.4676 18.4219 17.1805 0.0950257 -0.174845 0.142799 
55 1 1 23.3072 19.3213 16.6665 -0.0612899 0.162694 -0.0862816 
56 1 1 23.807 17.7585 17.0222 0.0627371 0.0398254 -0.0204672 
57 1 1 24.0281 16.8347 16.829 0.0989532 -0.0271361 0.113432 
58 1 1 24.0543 18.2489 16.3317 0.346572 0.042176 0.0879776 
59 1 1 24.0746 15.8581 16.5415 0.140223 0.1377 -0.151029 
60 1 1 23.406 14.4388 16.9831 -0.0585359 0.0763686 -0.0909415 
61 1 1 23.9142 14.981 16.3009 0.213531 -0.126525 0.151222 
62 1 1 20.7595 13.0148 17.5472 0.0736609 -0.0727749 0.0516539 
63 1 1 19.406 13.1425 17.8859 0.0323172 0.183586 0.0878729 
64 1 1 20.0024 12.7373 17.3665 0.209025 0.15809 0.0688819 
65 1 1 17.862 13.811 17.9344 0.0413464 0.10613 -0.147871 
66 1 1 18.4446 13.1749 17.6754 -0.0242396 0.103199 -0.0475373 
67 1 1 21.3268 13.0833 17.3635 0.00183688 -0.0391018 -0.030812 
68 1 1 22.1942 13.262 17.0252 0.0642576 -0.0258565 -0.00864397 
69 1 1 23.0793 13.5995 16.6634 0.0579635 -0.0623741 -0.129409 
70 1 1 22.7113 19.6256 17.1563 0.044928 0.15727 -0.08513 
71 1 1 21.8887 19.9486 17.4754 -0.0253558 -0.146225 0.153164 
72 1 1 20.9059 19.9159 17.9525 0.304608 -0.0824879 0.12882 
73 1 1 19.915 19.9746 18.0774 -0.000429529 -0.0808566 0.0181418 
74 1 1 18.9982 19.779 18.1788 0.0694643 -0.0749253 -0.0980944 
75 1 1 18.4751 19.1216 18.4868 -0.0884297 -0.0295963 0.0967451 
76 1 1 18.0961 18.1275 18.7478 -0.124894 0.120215 0.0399808 
77 1 1 17.6782 17.2128 18.8651 -0.0326539 -0.0270229 0.116965 
78 1 1 17.4651 16.336 18.7154 0.0104172 0.0310193 -0.019409 
79 1 1 17.463 14.5906 18.163 0.120105 -0.00646715 0.0404029 
80 1 1 17.1673 15.4994 18.4396 0.0453576 -0.0719027 -0.0933695 
81 1 1 17.0468 14.0089 17.5503 0.0132608 0.113436 -0.149325 
82 1 1 22.8699 20.0309 16.2413 0.194728 0.0139979 -0.107249 
83 1 1 23.8255 18.993 16.1714 0.111877 0.0227077 0.0244484 
84 1 1 23.4103 19.5943 16.0147 0.111011 -0.031684 -0.0693378 
85 1 1 24.2302 17.6391 16.2425 0.0355228 -0.0176605 0.0208127 
86 1 1 24.3985 16.5651 15.9984 0.0887758 0.0164207 -0.0718059 
87 1 1 24.3129 18.2665 15.6265 0.104352 0.00879294 -0.037316 
88 1 1 24.3695 15.66 15.6666 -0.078509 -0.0233776 0.00970486 
89 1 1 23.6755 14.1057 16.0032 -0.0156117 0.0220393 0.187386 
90 1 1 24.2557 14.9008 15.2705 0.109791 -0.0926711 -0.100301 
91 1 1 20.6926 12.515 16.7663 -0.206861 0.0584253 -0.0167224 
92 1 1 19.1733 12.7057 17.2101 0.0144081 0.148374 0.120342 
93 1 1 19.7365 12.3262 16.538 0.0564461 -0.0220876 0.0747125 
94 1 1 17.5863 13.2452 17.251 0.0522376 0.0132413 0.000352083 
95 1 1 18.3706 12.6401 16.8895 -0.120384 0.0151706 -0.0572354 
96 1 1 21.6163 12.6582 16.5416 0.0943766 0.00800818 0.273841 
97 1 1 22.5553 12.9264 16.2476 0.0425756 -0.0249517 0.0371714 
98 1 1 23.3381 13.4025 15.6161 -0.00894033 -0.125802 -0.0747068 
99 1 1 22.1772 20.3137 16.7329 -0.153109 0.0285662 -0.0849449 
100 1 1 21.2596 20.6278 17.0954 0.0953972 0.00314382 0.0532995 
101 1 1 20.322 20.6608 17.3572 -0.0632433 0.0695394 0.0832309 
102 1 1 19.31 20.5643 17.5201 -0.0533428 0.131501 0.0578982 
103 1 1 18.1893 19.5879 18.0762 -0.0369291 0.00553279 -0.134811 
104 1 1 18.4393 20.1581 17.7125 -0.0532651 0.0726072 0.0883472 
105 1 1 17.5277 18.9017 18.1421 -0.0296547 -0.130503 -0.196115 
106 1 1 17.1493 17.8054 18.3929 0.0636125 -0.138009 0.0262848 
107 1 1 16.9143 16.9841 18.3465 -0.173217 0.0422291 0.0836361 
108 1 1 16.7217 16.3015 18.2244 0.0785817 0.0655087 -0.0959894 
109 1 1 16.7591 13.5189 16.8533 0.0630865 -0.093636 -0.0346875 
110 1 1 16.7009 14.8638 17.8459 -0.0724616 -0.0148767 -0.0116831 
111 1 1 16.3663 15.7715 17.8186 -0.135139 0.165213 -0.0182628 
112 1 1 16.2208 14.3001 17.132 -0.126554 0.0708196 -0.129397 
113 1 1 23.3591 19.9832 15.4235 0.0239168 0.106094 0.0231988 
114 1 1 22.5033 20.568 15.845 0.0970525 -0.0146176 -0.0350396 
115 1 1 24.0413 19.1591 15.1756 0.0603217 0.0546415 -0.100441 
116 1 1 23.6842 19.9049 14.6123 -0.0810073 -0.0761092 0.164278 
117 1 1 24.4884 17.4298 15.3788 0.0277529 0.0234289 0.0116475 
118 1 1 24.6571 16.5205 14.9975 0.0464496 0.0684332 0.131784 
119 1 1 24.5147 18.2588 14.7276 -0.187134 0.0378868 0.126964 
120 1 1 24.6239 15.5049 14.6087 -0.0880606 0.0188556 -0.0390298 
121 1 1 23.9193 14.0246 15.0471 0.202286 -0.0834645 -0.209672 
122 1 1 24.4277 14.846 14.36 -0.0177725 -0.0426216 0.235661 
123 1 1 21.0443 12.1456 15.8049 0.144926 -0.0878381 0.107552 
124 1 1 20.2875 12.1061 15.9809 0.0565081 0.0286317 -0.0282511 
125 1 1 19.0409 12.2227 16.3293 0.0103788 -0.117621 -0.0350072 
126 1 1 19.7233 11.9047 15.6641 -0.108137 -0.0969652 0.0309068 
127 1 1 17.3665 12.8197 16.5242 -0.0680293 0.116665 -0.0942935 
128 1 1 17.9987 12.2902 16.0618 0.102838 -0.0039603 0.0368329 
129 1 1 16.5155 12.9564 16.0653 -0.0162174 0.17365 0.12633 
130 1 1 23.4665 13.396 14.6163 -0.0819549 -0.107222 0.0473633 
131 1 1 21.9014 12.3988 15.7638 -0.0756984 0.135709 0.0419107 
132 1 1 22.851 12.8082 15.0471 -0.131733 -0.0593948 -0.108982 
133 1 1 21.7635 20.9279 16.1754 0.0320325 0.117491 0.013706 
134 1 1 20.7827 21.0732 16.5344 -0.0704114 0.254325 0.0062651 
135 1 1 18.4942 20.7206 17.1492 0.0311315 0.194998 0.0704291 
136 1 1 19.8223 21.0428 16.7959 0.01342 -0.0266627 -0.0316928 
137 1 1 18.9842 21.0433 16.726 -0.0559954 0.0133491 -0.0467229 
138 1 1 17.5913 19.7711 17.6043 0.0156654 0.0248179 0.102107 
139 1 1 17.8377 20.4792 17.1233 0.0451937 -0.0418179 0.137848 
140 1 1 16.8452 19.238 17.4739 0.137999 0.0391092 -0.119848 
141 1 1 16.6542 18.2344 17.8482 0.14333 0.190454 -0.142739 
142 1 1 16.571 17.4305 18.0298 0.0413402 0.110449 -0.0341608 
143 1 1 16.2161 16.6889 17.6976 0.0109295 -0.0538322 0.0037745 
144 1 1 16.0213 13.7481 16.4089 0.065543 -0.0074639 -0.0125781 
145 1 1 16.0939 15.1607 17.3648 0.0324734 0.0562307 0.0624299 
146 1 1 15.8863 15.8707 17.3273 -0.10064 0.116768 -0.17675 
147 1 1 15.5649 14.5417 16.5808 -0.262345 -0.131577 0.170724 
148 1 1 22.996 20.5227 14.9369 -0.0215268 -0.149031 -0.0260191 
149 1 1 22.1065 21.141 15.2564 -0.124885 -0.0848334 -0.0617214 
150 1 1 24.2447 19.0692 14.1345 -0.0440829 0.0291491 -0.00804601 
151 1 1 23.1091 20.5233 14.1316 0.168404 -0.00525233 -0.0299146 
152 1 1 23.7471 19.7686 13.6672 -0.0908266 0.0844937 0.0171996 
153 1 1 24.7236 17.3879 14.3872 -0.0682145 0.00452616 0.0821853 
154 1 1 24.7369 16.4357 14.0919 -0.0994545 0.120462 -0.0151987 
155 1 1 24.5781 18.1575 13.8113 -0.0176796 -0.0128659 -0.0587421 
156 1 1 24.5391 15.5506 13.7048 -0.0628579 0.020984 0.0385808 
157 1 1 24.0715 14.0882 14.1735 -0.0267102 0.0501194 -0.194915 
158 1 1 24.3275 14.7594 13.6797 -0.165614 -0.0738933 -0.0582423 
159 1 1 21.2631 12.0356 15.1464 0.0294143 0.173368 -0.04211 
160 1 1 20.3891 11.8315 15.1113 0.166605 0.0854861 -0.164998 
161 1 1 19.4239 11.7 14.9568 0.0412117 0.0431273 0.0325386 
162 1 1 18.7152 11.8427 15.4222 0.0974464 -0.0211135 -0.138335 
163 1 1 17.1578 12.3661 15.7484 -0.158642 -0.125475 -0.0018569 
164 1 1 17.7845 12.0117 15.462 -0.00200311 -0.0819437 -0.0116587 
165 1 1 15.8317 13.1622 15.6981 0.00375119 0.0150993 -0.0734909 
166 1 1 16.445 12.5709 15.4252 -0.0531046 -0.0377898 -0.141967 
167 1 1 23.0512 13.054 14.187 -0.0702837 0.0948138 0.0552586 
168 1 1 23.5988 13.6253 13.7817 -0.106723 -0.135392 0.0387355 
169 1 1 21.8818 12.2354 14.7757 -0.0788512 -0.0365558 0.0824566 
170 1 1 22.4119 12.5706 14.0741 0.0403019 -0.175269 0.0759211 
171 1 1 21.1138 21.3818 15.5944 -0.008489 -0.121926 -0.00167867 
172 1 1 20.1955 21.4648 15.9061 -0.0812694 0.0732626 -0.191542 
173 1 1 18.1345 20.9407 16.5577 0.147129 -0.0305199 -0.0669387 
174 1 1 19.3787 21.4382 15.9895 -0.033148 0.0198609 -0.0126081 
175 1 1 18.5767 21.2292 16.0918 -0.0980957 -0.0305334 -0.155654 
176 1 1 17.4149 20.654 16.3546 -0.056804 0.0048834 0.0289068 
177 1 1 17.0688 20.0243 16.9407 0.129188 0.0464075 0.0615884 
178 1 1 16.4003 19.3856 16.6935 -0.0582838 0.0966872 -0.218214 
179 1 1 16.1802 18.5114 17.156 0.04131 -0.0284083 -0.115721 
180 1 1 16.1336 17.6202 17.5116 -0.117563 -0.0276641 -0.114449 
181 1 1 15.6401 17.1412 17.0841 -0.11509 0.0244035 0.0429313 
182 1 1 15.5152 16.455 17.0717 -0.143046 -0.183131 0.0304372 
183 1 1 15.2189 13.9944 15.852 -0.0130566 -0.155455 0.054431 
184 1 1 15.1843 13.3309 15.2314 0.0687156 -0.00296893 -0.0502737 
185 1 1 15.3295 15.5702 16.7658 0.044463 -0.00644369 0.077651 
186 1 1 14.9972 14.7722 16.177 -0.0036779 -0.075067 0.0927014 
187 1 1 22.3774 21.0642 14.4347 -0.0619838 -0.0645133 -0.0817675 
188 1 1 21.4319 21.4671 14.6275 0.0591461 0.16014 -0.098053 
189 1 1 24.2061 18.8013 13.2537 0.0768918 -0.0195246 -0.0637473 
190 1 1 23.8144 19.3527 12.7979 0.0608366 -0.142764 0.0161932 
191 1 1 22.5476 20.9016 13.6543 -0.00796938 -0.000885373 -0.194568 
192 1 1 23.0401 20.4574 13.3794 -0.0413192 0.0974392 -0.0362459 
193 1 1 23.3385 19.9623 12.8768 -0.0208168 0.0622285 -0.10794 
194 1 1 24.6624 17.1312 13.4067 -0.0431437 -0.123003 -0.0490757 
195 1 1 24.5469 16.2307 13.0358 -0.166248 -0.00187982 -0.23945 
196 1 1 24.3657 17.8898 12.7903 0.101546 0.000872652 0.0539554 
197 1 1 24.2466 15.1935 12.8385 -0.0831637 -0.151348 0.00224817 
198 1 1 23.9575 14.3114 13.2416 -0.210419 -0.0813638 0.0485757 
199 1 1 21.0711 11.916 14.4166 0.110587 -0.154082 0.0074729 
200 1 1 20.4549 11.693 14.1041 -0.0214486 -0.0536361 0.00627241 
201 1 1 19.7247 11.6198 14.3908 -0.125512 0.0354004 -0.137992 
202 1 1 18.861 11.5437 14.4166 -0.150557 0.0311933 -0.0426076 
203 1 1 17.8815 11.6148 14.7314 0.00498742 0.10871 -0.0204362 
204 1 1 16.8844 11.9929 14.8135 0.0361667 -0.142405 0.13646 
205 1 1 15.7278 12.5434 14.8202 0.147852 -0.00642663 -0.137336 
206 1 1 22.9809 13.0499 13.4454 -0.0972764 -0.110135 0.149792 
207 1 1 23.3803 13.7249 12.8368 -0.0245049 -0.0942286 -0.0531217 
208 1 1 21.6605 12.2345 13.8217 0.0685383 -0.032132 0.0445475 
209 1 1 22.2144 12.6444 13.1205 -0.104089 -0.136743 0.0297282 
210 1 1 20.4925 21.6944 14.9997 0.0139398 0.167388 -0.104149 
211 1 1 19.6417 21.6345 15.0565 -0.0187199 0.138899 -0.0283689 
212 1 1 17.866 21.1251 15.7654 -0.0452226 -0.0153826 -0.0124602 
213 1 1 18.6606 21.4634 15.1056 0.0718187 -0.0185469 0.236027 
214 1 1 17.1401 20.8695 15.512 0.023178 -0.0470664 -0.0243064 
215 1 1 16.7012 20.2248 16.0614 -0.0347835 0.103213 0.0165237 
216 1 1 14.8572 12.9324 14.6055 0.258501 0.0409349 -0.0939479 
217 1 1 14.5353 13.7405 15.0819 -0.0729195 0.0823063 0.0227867 
218 1 1 16.0648 19.6786 15.849 -0.127582 -0.0178419 -0.0790921 
219 1 1 15.7486 18.9143 16.2661 -0.0889219 0.0016795 0.0364978 
220 1 1 15.5822 17.9321 16.6615 -0.0056167 -0.03198 0.0178169 
221 1 1 15.134 17.0832 16.4965 0.0265691 0.0137979 -0.0652678 
222 1 1 14.8634 16.3555 16.331 -0.0862685 -0.0594432 -0.146345 
223 1 1 14.4811 14.5167 15.5608 0.0804299 0.000676583 0.0559887 
224 1 1 14.5475 15.4384 15.9859 -0.143109 0.0165144 -0.0788454 
225 1 1 20.6918 21.6903 14.0031 -0.0508666 -0.0642804 0.212685 
226 1 1 21.6359 21.32 13.6283 0.17368 -0.00145912 0.0235499 
227 1 1 24.0137 18.5362 12.2709 -0.123477 0.0624639 0.0697935 
228 1 1 23.6056 18.9939 12.0445 -0.23188 -0.158135 0.0383791 
229 1 1 23.3111 19.6321 12.2124 0.00601013 -0.0682349 -0.0387813 
230 1 1 22.3008 20.8521 12.9489 -0.035246 -0.0467328 -0.0315645 
231 1 1 22.8911 20.2613 12.5755 -0.0765927 -0.112957 -0.030836 
232 1 1 24.4253 17.0051 12.4791 0.0497893 0.098135 -0.0273274 
233 1 1 24.1887 16.0948 12.0528 -0.113182 -0.0463827 0.0524732 
234 1 1 24.0418 17.6733 11.8879 -0.0919052 0.0898806 0.0558891 
235 1 1 23.7577 15.3396 11.7726 -0.177904 0.0623432 0.0432161 
236 1 1 23.7034 14.4941 12.4124 -0.102188 0.0386221 -0.138594 
237 1 1 20.9202 11.8252 13.5946 -0.0323203 0.118239 0.047038 
238 1 1 20.0796 11.4729 13.3485 -0.0445223 -0.0892146 -0.12899 
239 1 1 19.057 11.3717 13.6331 0.0701485 0.0757533 0.226086 
240 1 1 18.0934 11.3043 13.862 -0.13763 0.0372992 -0.029617 
241 1 1 17.1664 11.4557 13.9273 -0.0612289 -0.0184125 -0.117583 
242 1 1 16.1746 11.8654 14.0163 -0.00471133 -0.145715 0.0664551 
243 1 1 15.1872 12.2821 13.9783 0.0661243 0.0978172 0.117007 
244 1 1 22.7351 13.1608 12.5511 0.0767254 -0.0424894 -0.0600253 
245 1 1 23.0318 13.9519 11.9942 0.0285135 0.0170037 -0.241203 
246 1 1 21.4531 12.1557 12.9137 0.0260018 -0.0460791 0.173687 
247 1 1 21.9634 12.6916 12.286 0.103648 0.0483904 -0.119192 
248 1 1 19.8145 21.7545 14.2517 0.114172 -0.0854043 0.131744 
249 1 1 19.1581 21.6343 14.3754 -0.13683 -0.0542414 -0.0375158 
250 1 1 17.7178 21.2448 14.8743 0.0604866 -0.0591792 -0.175335 
251 1 1 18.4155 21.4957 14.147 -0.0117488 0.0400187 0.00493369 
252 1 1 16.8077 20.9694 14.5839 0.0914322 -0.0304165 -0.0154201 
253 1 1 16.3607 20.4195 15.2355 -0.134782 0.0154703 -0.0306489 
254 1 1 14.2418 12.6571 13.9674 0.111381 -0.0368205 -0.0620163 
255 1 1 14.0207 13.4616 14.5106 -0.0443992 -0.0514304 -0.00571911 
256 1 1 13.8888 14.4083 14.9319 0.0769562 -0.223187 0.0459792 
257 1 1 15.7558 19.91 15.0428 0.162295 -0.115211 -0.0292185 
258 1 1 15.3687 19.2334 15.4092 0.00606363 0.0845026 0.0218678 
259 1 1 15.2575 18.6235 15.8347 0.0425071 -0.114363 -0.0546678 
260 1 1 14.8223 17.8599 15.759 0.0568596 -0.0981178 -0.149725 
261 1 1 14.4192 17.0947 15.6986 -0.00626908 0.0651967 -0.0298042 
262 1 1 14.1882 16.1806 15.6397 -0.0746479 0.090801 0.0193561 
263 1 1 13.858 15.3172 15.3495 0.0656172 0.0411726 -0.130198 
264 1 1 20.1069 21.7244 13.5785 0.161804 -0.0933132 0.205137 
265 1 1 20.7509 21.4849 13.0859 -0.0400392 -0.143219 -0.0704608 
266 1 1 21.4356 21.0682 12.5898 0.0147815 -0.108612 -0.081644 
267 1 1 23.4709 18.291 11.365 0.112376 -0.0606711 0.0519278 
268 1 1 23.1531 19.1016 11.4819 -0.00021582 -0.102477 0.0228642 
269 1 1 22.7084 19.85 11.7803 0.0292728 0.0327255 0.0864146 
270 1 1 22.1692 20.5449 12.1467 0.15104 -0.0255939 -0.0922758 
271 1 1 24.0172 16.8318 11.6268 -0.106804 -0.195057 0.0727823 
272 1 1 23.8094 16.112 11.4722 -0.0494785 -0.164773 0.0703215 
273 1 1 23.641 17.3778 11.2728 0.0159802 -0.0547851 0.102373 
274 1 1 23.3492 15.6894 11.068 0.0662097 0.0869162 0.0366357 
275 1 1 23.2446 14.7826 11.5345 -0.0415679 -0.0868797 -0.0923113 
276 1 1 20.6969 11.7796 12.578 0.188352 -0.0231816 -0.158915 
277 1 1 19.9922 11.5238 12.3367 0.0737373 0.115514 -0.0752914 
278 1 1 19.2568 11.3052 12.6894 0.0802272 -0.238035 -0.119964 
279 1 1 18.3712 11.1908 12.9192 0.141341 0.0875901 -0.17235 
280 1 1 17.4575 11.1703 13.0637 -0.00510466 -0.0164667 -0.0783956 
281 1 1 16.5133 11.4146 13.3273 -0.175804 0.0857645 -0.101509 
282 1 1 15.5381 11.6625 13.3784 -0.0488834 0.0798863 0.0255425 
283 1 1 14.4616 11.9571 13.3642 -0.0897563 0.109417 -0.0631752 
284 1 1 22.4124 13.4159 11.7107 -0.173089 -0.0307348 -0.0425546 
285 1 1 22.6274 14.0968 11.2069 -0.106079 -0.142149 -0.286777 
286 1 1 21.2449 12.3185 12.0128 0.00516128 -0.111379 0.147068 
287 1 1 21.7033 12.908 11.4215 -0.0161931 0.0096177 0.223751 
288 1 1 19.1923 21.5996 13.4777 -0.0306646 0.00722962 0.0661018 
289 1 1 17.5577 21.325 14.0705 -0.00969314 -0.0733978 -0.100097 
290 1 1 18.1032 21.4457 13.5587 0.125951 -0.0544547 0.0560718 
291 1 1 13.5606 12.489 13.3658 0.142828 0.0627872 0.0617019 
292 1 1 16.6373 21.0218 13.6802 0.118596 -0.0842279 -0.205837 
293 1 1 16.0922 20.6281 14.3256 0.0201543 -0.105512 -0.0338564 
294 1 1 13.4262 13.2238 13.8175 0.0453861 0.00253608 -0.120905 
295 1 1 13.2295 14.109 14.24 -0.183968 -0.0263999 0.298637 
296 1 1 13.2754 14.9557 14.6045 -0.204947 0.0809047 -0.0040861 
297 1 1 15.3828 20.0637 14.1791 0.0192667 -0.0755617 0.0597155 
298 1 1 15.1384 19.5716 14.6948 -0.131883 -0.17455 0.0695969 
299 1 1 14.6119 18.6719 15.0756 0.0359523 0.093059 -0.0461961 
300 1 1 14.0869 17.8541 15.0816 -0.0142106 0.0444452 0.00958654 
301 1 1 13.7605 16.9571 15.0991 0.150935 -0.0516252 0.0398165 
302 1 1 13.4995 15.9617 14.9622 0.203944 0.0658906 0.0186769 
303 1 1 21.2853 20.7056 11.7268 0.0985399 -0.0153204 0.123395 
304 1 1 19.9148 21.5946 12.8868 -0.161457 0.299077 0.0127341 
305 1 1 20.5755 21.2317 12.26 -0.0440557 -0.0307855 0.00162422 
306 1 1 23.1404 17.5824 10.793 0.0687178 0.111334 -0.0559834 
307 1 1 22.7789 18.5638 10.8337 0.0767439 0.0260589 0.054739 
308 1 1 22.4867 19.3811 11.0796 -0.0109906 -0.000899986 0.244321 
309 1 1 21.9375 20.145 11.3663 0.0474305 0.0709228 0.0508736 
310 1 1 23.3447 16.6488 10.8735 0.1538 -0.132468 -0.0298875 
311 1 1 22.8952 15.7949 10.4877 -0.0862665 0.0611053 0.0579939 
312 1 1 22.7606 14.9305 10.7121 -0.0336012 -0.0721649 -0.0645131 
313 1 1 20.3637 11.8512 11.6066 -0.0463708 0.224827 -0.114355 
314 1 1 19.5232 11.4398 11.7822 -0.177247 0.134026 -0.117416 
315 1 1 18.5785 11.1835 11.9852 0.0194447 -0.00375595 -0.16787 
316 1 1 17.7355 10.9736 12.0949 -0.0170365 -0.150656 -0.0819779 
317 1 1 16.7401 10.9582 12.3796 0.0115659 0.00105292 -0.0101986 
318 1 1 15.8753 11.2154 12.6429 -0.0628112 0.0115568 0.0472359 
319 1 1 14.6817 11.4734 12.7294 -0.0493866 -0.0455616 -0.0383632 
320 1 1 13.6807 11.8475 12.7097 -0.20175 0.0660912 0.0997418 
321 1 1 21.9232 13.4849 10.9086 -0.127051 -0.1817 0.201396 
322 1 1 22.2152 14.0839 10.5043 -0.00446738 -0.0258935 0.0974602 
323 1 1 20.9797 12.4361 11.1132 0.0663564 0.0438751 0.00755756 
324 1 1 21.3549 13.0163 10.7397 0.134765 -0.0358041 0.016708 
325 1 1 19.0898 21.4641 12.5531 0.0135521 -0.0500177 -0.0376431 
326 1 1 18.4418 21.4394 12.7894 0.165562 0.0572815 -0.039743 
327 1 1 17.3946 21.2736 13.0393 -0.0493942 0.123407 0.138815 
328 1 1 16.4481 20.956 12.8509 0.144832 0.0755184 0.0627425 
329 1 1 12.77 12.3447 12.6961 -0.0195097 0.0494821 0.154144 
330 1 1 12.6582 13.0988 13.2274 -0.00273201 -0.130865 0.104455 
331 1 1 15.8394 20.5486 13.4474 0.0558033 0.0144663 -0.017974 
332 1 1 12.5657 13.9363 13.57 0.0849696 0.0271857 -0.00745763 
333 1 1 12.6012 14.8158 13.9199 -0.00525901 0.0433441 0.0898378 
334 1 1 12.7888 15.6542 14.1923 -0.131084 0.0448859 0.0556804 
335 1 1 14.9906 20.0583 13.4962 0.0285571 -0.0259131 0.0388696 
336 1 1 14.5107 19.4448 14.0499 0.0381633 -0.0767122 0.0202975 
337 1 1 13.8835 18.5329 14.2816 -0.0344735 0.00989038 -0.0686629 
338 1 1 13.4611 17.6279 14.4682 -0.213923 -0.214955 0.150817 
339 1 1 13.0807 16.6943 14.4449 -0.0338939 -0.00156722 -0.0581353 
340 1 1 22.7429 17.2456 10.3545 0.086488 0.0377832 -0.0432584 
341 1 1 21.0815 20.2771 10.9408 0.0265288 -0.129323 -0.161562 
342 1 1 20.4118 20.8012 11.4041 0.0111682 0.0681175 -0.0384965 
343 1 1 19.5829 21.2624 11.8347 0.036438 0.03078 -0.136048 
344 1 1 22.4335 17.9274 10.2928 -0.0363281 0.0404011 -0.0432779 
345 1 1 22.0443 18.7617 10.3434 0.0196783 -0.0992042 0.0118858 
346 1 1 21.6737 19.6232 10.6305 0.183078 0.111332 -0.0152018 
347 1 1 20.8248 19.8465 10.2928 -0.0735976 -0.0357047 -0.107404 
348 1 1 22.6681 16.4096 10.1818 0.117879 0.00590621 -0.0128311 
349 1 1 22.3945 15.5742 9.93071 0.0601735 -0.0258434 -0.126193 
350 1 1 22.0676 14.6815 9.84177 0.0911798 -0.0973596 0.0860027 
351 1 1 20.3244 12.1078 10.7379 0.11871 -0.0593664 0.0645654 
352 1 1 19.701 11.6295 10.9018 0.107274 -0.149183 0.0429837 
353 1 1 18.8611 11.1773 11.1155 0.0406347 0.0465962 0.0871204 
354 1 1 17.995 10.9218 11.157 -0.0286858 0.22048 0.130138 
355 1 1 17.004 10.7708 11.434 -0.0714235 0.0126127 -0.0399421 
356 1 1 16.0507 10.8656 11.7181 -0.00816202 -0.0621972 0.0110357 
357 1 1 15.1958 11.064 11.8781 0.104897 0.0389964 -0.130298 
358 1 1 14.099 11.2392 12.0637 -0.0452698 0.0169809 -0.0723761 
359 1 1 13.0252 11.5658 12.0932 0.130546 0.0533398 0.125084 
360 1 1 21.5288 13.7104 10.016 -0.0264359 -0.0558142 -0.0120326 
361 1 1 20.7481 12.7383 10.1616 -0.0398368 -0.0169805 0.11583 
362 1 1 18.5392 21.333 11.8571 0.127241 0.0300846 -0.0467291 
363 1 1 17.7089 21.2753 12.0749 0.0371268 0.0186636 -0.0153866 
364 1 1 16.7607 21.038 12.1858 -0.0309866 0.0719964 0.154282 
365 1 1 15.8191 20.6902 12.4945 -0.146538 0.115723 0.107798 
366 1 1 12.0729 12.0817 12.0042 0.00941091 -0.0275325 -0.137821 
367 1 1 11.992 12.8622 12.6204 0.201349 0.0198507 -0.0858765 
368 1 1 11.7888 13.7606 12.9423 -0.0743419 0.0419415 0.155826 
369 1 1 15.0144 20.3186 12.7124 0.229105 -0.198149 0.0326493 
370 1 1 11.8024 14.6839 13.2594 0.107808 0.0915185 0.0483036 
371 1 1 12.0622 15.5441 13.4723 -0.199619 0.0296344 0.137594 
372 1 1 12.3631 16.4626 13.8264 0.020204 0.0228043 -0.199591 
373 1 1 14.4102 19.729 13.0836 -0.224256 -0.0379678 -0.00800069 
374 1 1 13.7987 19.0659 13.3901 -0.0612564 0.16513 -0.208079 
375 1 1 13.2874 18.1967 13.5971 0.086261 0.041721 0.0603613 
376 1 1 12.77 17.3794 13.783 -0.0449418 0.103832 -0.114433 
377 1 1 22.1288 17.2039 9.80613 -0.0435498 0.0174467 0.0491373 
378 1 1 20.2333 20.3504 10.5922 0.12264 -0.00781168 0.132918 
379 1 1 19.698 20.7931 10.9486 -0.0870377 -0.0538781 0.00896661 
380 1 1 18.89 20.9529 10.9851 -0.0550561 0.0651064 -0.0931083 
381 1 1 21.6374 18.183 9.78936 0.0867012 0.00436344 -0.213439 
382 1 1 21.3091 19.109 9.9715 0.0541907 -0.0500641 0.0934982 
383 1 1 20.508 19.348 9.49844 -0.143052 -0.175994 -0.159115 
384 1 1 20.1086 19.9279 9.96381 -0.0198334 -0.0554093 -0.0652982 
385 1 1 22.0059 16.231 9.52429 0.0194489 -0.00946087 -0.112936 
386 1 1 21.6842 15.2675 9.25633 -0.111514 -0.0713419 0.0459142 
387 1 1 21.3188 14.4097 9.25946 -0.135592 -0.0598652 0.0701662 
388 1 1 19.9028 12.0731 10.0678 -0.00124157 0.0789637 0.0347432 
389 1 1 19.1623 11.4991 10.2386 -0.0360682 -0.0179763 0.0618944 
390 1 1 18.2135 11.0819 10.3041 0.044054 0.0906628 0.0400072 
391 1 1 17.3036 10.7576 10.4643 0.179298 0.00398639 -0.0740669 
392 1 1 16.3438 10.592 10.7925 0.0469082 -0.0732009 0.0286441 
393 1 1 15.3162 10.6344 11.0112 -0.00999448 -0.0169385 -0.0355886 
394 1 1 14.465 10.8081 11.2585 0.130075 0.115088 0.0284965 
395 1 1 13.3897 11.0246 11.4075 0.125912 0.126753 0.015869 
396 1 1 12.3646 11.3066 11.4128 0.0366622 -0.0010898 0.00647614 
397 1 1 20.7969 13.504 9.29347 -0.0293778 -0.014946 -0.00827298 
398 1 1 20.0522 12.6936 9.35105 0.081751 0.085025 -0.0327387 
399 1 1 17.9912 21.0087 11.0968 -0.00785475 0.0673911 0.049007 
400 1 1 17.0645 20.9965 11.3459 -0.113175 -0.0733553 0.100269 
401 1 1 16.1501 20.7857 11.5702 -0.163999 0.0834012 -0.00673732 
402 1 1 11.4677 11.8498 11.3707 -0.159358 0.0747834 -0.0954309 
403 1 1 15.1708 20.4485 11.8091 0.097148 0.00451094 -0.0958789 
404 1 1 11.1443 12.6411 11.9071 0.00962902 0.00723366 -0.0230884 
405 1 1 11.054 13.4878 12.297 -0.0744803 -0.0829167 -0.0883191 
406 1 1 11.1329 14.4123 12.6436 0.080261 0.00305104 -0.0226153 
407 1 1 14.4002 20.0073 12.108 0.112267 -0.207285 0.0389847 
408 1 1 11.2569 15.3669 12.7931 -0.0580819 0.0142913 0.0900076 
409 1 1 11.6724 16.2723 13.0439 0.0328627 0.0516789 0.145163 
410 1 1 12.0764 17.1668 13.1588 -0.0343541 0.0148529 -0.0315788 
411 1 1 13.6908 19.4341 12.4415 0.12519 -0.0193083 0.246172 
412 1 1 13.1314 18.7853 12.6707 0.178774 -0.0095316 0.0736256 
413 1 1 12.5283 18.0126 12.8601 0.0703986 0.0934332 0.12815 
414 1 1 21.4137 17.6792 9.24694 -0.0199232 0.064527 -0.0623509 
415 1 1 21.4172 16.9862 8.98491 -0.0109228 0.137602 -0.201774 
416 1 1 19.2498 20.3959 10.1315 -0.00890182 -0.0562826 0.0672808 
417 1 1 18.2643 20.6267 10.1783 0.0787032 0.0129359 0.0261352 
418 1 1 20.9152 18.4438 9.16793 -0.0479809 0.0679353 0.0638305 
419 1 1 20.1901 18.9675 8.93274 -0.0408727 -0.0415356 0.0931564 
420 1 1 19.5432 19.6706 9.20697 -0.0612345 -0.136558 0.00306743 
421 1 1 21.3398 16.121 8.80748 -0.0140005 -0.218315 0.109926 
422 1 1 20.9992 15.1449 8.62275 0.0869569 -0.00600999 0.0390976 
423 1 1 20.7298 14.1751 8.69904 -0.129626 0.0687865 -0.0517197 
424 1 1 19.2493 11.8985 9.36453 -0.0110419 0.181538 -0.104289 
425 1 1 18.413 11.3801 9.41526 0.0111398 -0.0254074 0.0157735 
426 1 1 17.4951 10.8805 9.60558 0.112515 0.103093 0.165117 
427 1 1 16.5492 10.4637 9.80659 -0.266308 -0.165189 0.172368 
428 1 1 15.6392 10.3402 10.1139 -0.0572348 0.0884473 0.0525021 
429 1 1 11.7248 11.2448 10.6778 0.0264011 -0.00997308 0.0142883 
430 1 1 14.6666 10.4187 10.2998 0.117489 -0.0319407 -0.135847 
431 1 1 13.7348 10.6236 10.5904 0.0484727 -0.059739 0.0904064 
432 1 1 12.663 10.9054 10.6369 -0.220538 0.215311 0.125435 
433 1 1 20.0652 13.3272 8.63761 -0.0736082 0.102622 -0.0251763 
434 1 1 19.3864 12.4714 8.65108 0.136368 -0.0289856 0.054313 
435 1 1 17.3866 20.7979 10.4317 0.233056 0.0176228 -0.0660015 
436 1 1 16.3837 20.7811 10.6784 -0.000499834 -0.184424 0.0657253 
437 1 1 15.4652 20.5481 10.9 -0.074686 -0.117978 -0.164734 
438 1 1 10.7921 11.6964 10.6145 0.0375088 0.0487155 -0.028985 
439 1 1 10.5457 12.4732 11.1822 -0.0586707 0.0740316 -0.186715 
440 1 1 14.5988 20.237 11.1438 0.102022 -0.0554248 -0.0390898 
441 1 1 10.4001 13.2879 11.5793 -0.0272591 0.136366 -0.0043526 
442 1 1 10.422 14.1289 11.9586 0.107271 -0.0807591 0.17312 
443 1 1 10.5467 15.0638 12.1663 -0.0423809 -0.0733766 0.00730629 
444 1 1 13.778 19.7427 11.4735 -0.119128 0.0599747 0.0662324 
445 1 1 10.9972 16.0102 12.2492 0.144506 -0.0899341 -0.0931013 
446 1 1 11.4911 16.8513 12.3517 0.0145837 -0.00684756 -0.020129 
447 1 1 11.9107 17.765 12.226 0.0156782 -0.0215512 -0.213304 
448 1 1 13.0514 19.1606 11.7593 0.0659293 0.0138453 -0.174907 
449 1 1 12.4319 18.4965 11.9438 0.0820358 0.0219582 -0.0297084 
450 1 1 20.8638 17.718 8.64532 0.122288 0.238362 0.0561145 
451 1 1 20.7979 16.7784 8.32924 0.0391959 -0.0442972 0.0489754 
452 1 1 18.5648 20.1099 9.32606 -0.0301512 0.0332172 -0.0683247 
453 1 1 17.6363 20.4817 9.52907 -0.110585 -0.00498581 -0.0246631 
454 1 1 20.2369 18.2749 8.4359 -0.0239912 0.11423 -0.0420598 
455 1 1 19.5248 19.0449 8.42261 0.038951 -0.0969542 -0.0481008 
456 1 1 18.6806 19.6067 8.4692 0.00785045 -0.0592284 -0.239837 
457 1 1 20.6381 15.9056 8.08563 -0.0376007 0.0891216 0.0506814 
458 1 1 20.3583 14.9685 7.96078 0.03952 -0.196381 0.115236 
459 1 1 19.9608 14.0849 7.96597 0.0107929 0.0156216 -0.0680715 
460 1 1 18.5586 11.814 8.59243 -0.126693 -0.174033 -0.0372437 
461 1 1 17.7188 11.1989 8.71602 -0.172824 0.114207 0.0970304 
462 1 1 16.811 10.6926 8.8985 -0.0107917 0.0654665 -0.0826821 
463 1 1 15.8053 10.3922 9.14041 -0.117333 -0.0841956 0.00377583 
464 1 1 14.8686 10.2679 9.37896 -0.059581 -0.0923879 0.108398 
465 1 1 11.018 11.1181 9.93849 0.141294 -0.259603 0.0425307 
466 1 1 11.9348 10.7671 9.9132 0.0575954 0.103362 -0.035348 
467 1 1 13.9671 10.342 9.66936 0.114099 0.0483494 0.102247 
468 1 1 13.0153 10.4786 9.8809 -0.111209 -0.151889 0.0704834 
469 1 1 19.4076 13.1132 7.90244 -0.00971683 -0.0434729 0.219777 
470 1 1 18.7157 12.3351 7.86771 -0.0213569 0.150752 0.0321639 
471 1 1 16.7257 20.661 9.74968 0.163191 0.0586204 -0.0200916 
472 1 1 15.7832 20.5465 9.99679 -0.073265 0.107852 -0.225596 
473 1 1 14.7999 20.3493 10.2399 -0.0645103 -0.0756426 -0.169013 